LAMMPS data file via mkdata

 7300 atoms
 6700 bonds
10500 angles
10700 dihedrals

10 atom types
 7 bond types
11 angle types
 7 dihedral types

   0.000  32.224 xlo xhi
   0.000  34.268 ylo yhi
-223.000 223.000 zlo zhi

Masses



Bond Coeffs



Angle Coeffs



Dihedrals Coeff



Atoms

     1   1  1  0.19600  18.770  10.400  37.530
     2   1  2  0.08720  17.190   9.590  36.870
     3   1  3  0.06560  16.340  10.640  36.010
     4   1  2  0.08720  18.350  11.810  38.730
     5   1  3  0.06560  17.570  12.980  37.960
     6   1  2  0.08720  19.800  11.070  36.090
     7   1  3  0.06560  21.160  11.720  36.640
     8   1  2  0.10880  19.780   9.100  38.470
     9   1  2  0.14240  20.200   7.920  37.460
    10   1  4 -0.30560  21.020   6.920  38.200
    11   1  3  0.20000  21.470   5.860  37.250
    12   2  1  0.19600  15.560  18.400  31.260
    13   2  2  0.08720  16.760  19.720  31.930
    14   2  3  0.06560  18.230  19.110  32.080
    15   2  2  0.08720  15.400  16.960  32.490
    16   2  3  0.06560  16.800  16.210  32.650
    17   2  2  0.08720  16.190  17.760  29.590
    18   2  3  0.06560  15.160  16.680  29.010
    19   2  2  0.10880  13.860  19.190  31.020
    20   2  2  0.14240  13.950  20.370  29.950
    21   2  4 -0.30560  12.610  20.970  29.740
    22   2  3  0.20000  12.690  22.010  28.690
    23   3  1  0.19600   9.080  15.470  -1.460
    24   3  2  0.08720  10.200  16.960  -1.830
    25   3  3  0.06560  11.160  16.640  -3.070
    26   3  2  0.08720  10.110  13.970  -0.920
    27   3  3  0.06560  11.060  13.490  -2.130
    28   3  2  0.08720   8.070  15.040  -3.000
    29   3  3  0.06560   7.090  13.810  -2.670
    30   3  2  0.10880   7.900  15.920  -0.040
    31   3  2  0.14240   6.980  17.150  -0.490
    32   3  4 -0.30560   6.040  17.490   0.610
    33   3  3  0.20000   5.130  18.580   0.170
    34   4  1  0.19600  14.880   1.880  48.750
    35   4  2  0.08720  14.400   0.240  47.930
    36   4  3  0.06560  15.270   0.000  46.610
    37   4  2  0.08720  14.480   3.340  47.610
    38   4  3  0.06560  15.370   3.270  46.280
    39   4  2  0.08720  16.730   1.870  49.170
    40   4  3  0.06560  17.130   3.240  49.900
    41   4  2  0.10880  13.890   2.080  50.360
    42   4  2  0.14240  14.250   0.890  51.370
    43   4  4 -0.30560  13.490   1.060  52.630
    44   4  3  0.20000  13.880   0.000  53.590
    45   5  1  0.19600  13.530   2.650  57.970
    46   5  2  0.08720  14.470   1.950  59.460
    47   5  3  0.06560  15.970   2.520  59.490
    48   5  2  0.08720  14.320   2.080  56.340
    49   5  3  0.06560  15.800   2.670  56.210
    50   5  2  0.08720  13.510   4.540  58.050
    51   5  3  0.06560  12.680   5.130  56.820
    52   5  2  0.10880  11.740   2.010  58.020
    53   5  2  0.14240  11.020   2.530  59.360
    54   5  4 -0.30560   9.620   2.050  59.380
    55   5  3  0.20000   8.930   2.590  60.590
    56   6  1  0.19600  23.080  27.720 -32.130
    57   6  2  0.08720  21.860  29.170 -32.150
    58   6  3  0.06560  20.810  29.040 -30.950
    59   6  2  0.08720  22.170  26.080 -32.420
    60   6  3  0.06560  21.150  25.790 -31.220
    61   6  2  0.08720  23.980  27.670 -30.460
    62   6  3  0.06560  25.040  26.460 -30.450
    63   6  2  0.10880  24.350  27.960 -33.510
    64   6  2  0.14240  25.170  29.310 -33.260
    65   6  4 -0.30560  26.190  29.480 -34.330
    66   6  3  0.20000  27.000  30.690 -34.050
    67   7  1  0.19600  12.320   2.380 -55.880
    68   7  2  0.08720  12.970   4.060 -55.290
    69   7  3  0.06560  11.800   4.920 -54.620
    70   7  2  0.08720  11.010   2.600 -57.230
    71   7  3  0.06560   9.730   3.370 -56.650
    72   7  2  0.08720  11.570   1.440 -54.410
    73   7  3  0.06560  11.050   0.010 -54.890
    74   7  2  0.10880  13.760   1.370 -56.590
    75   7  2  0.14240  14.850   1.110 -55.440
    76   7  4 -0.30560  15.960   0.300 -56.000
    77   7  3  0.20000  16.940   0.000 -54.920
    78   8  1  0.19600  20.650   2.380  65.720
    79   8  2  0.08720  22.110   1.200  65.450
    80   8  3  0.06560  21.670  -0.020  64.510
    81   8  2  0.08720  19.240   1.510  66.630
    82   8  3  0.06560  18.650   0.330  65.740
    83   8  2  0.08720  20.040   3.030  64.050
    84   8  3  0.06560  18.840   4.070  64.280
    85   8  2  0.10880  21.240   3.850  66.780
    86   8  2  0.14240  22.400   4.640  66.000
    87   8  4 -0.30560  22.840   5.800  66.820
    88   8  3  0.20000  23.860   6.570  66.080
    89   9  1  0.19600   4.720   6.420  53.880
    90   9  2  0.08720   3.730   7.940  53.340
    91   9  3  0.06560   4.720   9.140  52.970
    92   9  2  0.08720   5.690   6.780  55.470
    93   9  3  0.06560   6.780   7.920  55.210
    94   9  2  0.08720   5.910   5.900  52.500
    95   9  3  0.06560   6.720   4.590  52.950
    96   9  2  0.10880   3.520   4.990  54.220
    97   9  2  0.14240   2.730   4.620  52.880
    98   9  4 -0.30560   1.800   3.490  53.150
    99   9  3  0.20000   1.120   3.090  51.880
   100  10  1  0.19600  19.950  21.590  45.310
   101  10  2  0.08720  21.840  21.650  45.480
   102  10  3  0.06560  22.500  20.370  44.780
   103  10  2  0.08720  19.240  20.090  46.230
   104  10  3  0.06560  19.770  18.730  45.560
   105  10  2  0.08720  19.480  21.510  43.480
   106  10  3  0.06560  17.880  21.500  43.340
   107  10  2  0.10880  19.220  23.160  46.080
   108  10  2  0.14240  19.750  24.440  45.280
   109  10  4 -0.30560  19.150  25.670  45.870
   110  10  3  0.20000  19.590  26.860  45.080
   111  11  1  0.19600  13.430  16.170   5.010
   112  11  2  0.08720  11.840  15.200   4.630
   113  11  3  0.06560  10.640  15.730   5.550
   114  11  2  0.08720  13.990  15.880   6.800
   115  11  3  0.06560  12.900  16.460   7.820
   116  11  2  0.08720  13.140  18.020   4.710
   117  11  3  0.06560  14.490  18.830   4.980
   118  11  2  0.10880  14.800  15.560   3.840
   119  11  2  0.14240  14.380  15.850   2.320
   120  11  4 -0.30560  15.470  15.400   1.410
   121  11  3  0.20000  15.110  15.730   0.010
   122  12  1  0.19600  24.050  30.050 -48.940
   123  12  2  0.08720  25.600  29.230 -48.220
   124  12  3  0.06560  26.500  30.320 -47.460
   125  12  2  0.08720  24.510  31.340 -50.250
   126  12  3  0.06560  25.350  32.530 -49.590
   127  12  2  0.08720  23.060  30.880 -47.540
   128  12  3  0.06560  21.730  31.540 -48.140
   129  12  2  0.10880  22.970  28.720 -49.750
   130  12  2  0.14240  22.510  27.650 -48.650
   131  12  4 -0.30560  21.640  26.630 -49.290
   132  12  3  0.20000  21.160  25.680 -48.250
   133  13  1  0.19600  10.100  30.430   1.730
   134  13  2  0.08720   8.700  29.330   1.110
   135  13  3  0.06560   7.640  30.190   0.270
   136  13  2  0.08720   9.450  31.750   2.930
   137  13  3  0.06560   8.440  32.740   2.180
   138  13  2  0.08720  10.950  31.270   0.260
   139  13  3  0.06560  12.170  32.170   0.780
   140  13  2  0.10880  11.370  29.360   2.650
   141  13  2  0.14240  11.990  28.280   1.640
   142  13  4 -0.30560  13.000  27.450   2.350
   143  13  3  0.20000  13.620  26.500   1.400
   144  14  1  0.19600   4.490   3.360  57.600
   145  14  2  0.08720   5.050   3.890  59.340
   146  14  3  0.06560   6.310   3.020  59.810
   147  14  2  0.08720   3.900   1.560  57.600
   148  14  3  0.06560   5.110   0.570  57.970
   149  14  2  0.08720   5.930   3.560  56.380
   150  14  3  0.06560   5.450   3.160  54.910
   151  14  2  0.10880   3.050   4.470  57.060
   152  14  2  0.14240   3.540   5.990  56.990
   153  14  4 -0.30560   2.410   6.850  56.540
   154  14  3  0.20000   2.890   8.250  56.400
   155  15  1  0.19600   5.300  12.500 -70.150
   156  15  2  0.08720   4.050  13.720 -70.900
   157  15  3  0.06560   4.810  14.910 -71.650
   158  15  2  0.08720   6.350  13.350 -68.820
   159  15  3  0.06560   7.230  14.520 -69.470
   160  15  2  0.08720   6.420  11.820 -71.520
   161  15  3  0.06560   7.450  10.760 -70.890
   162  15  2  0.10880   4.350  11.070 -69.350
   163  15  2  0.14240   3.500  10.290 -70.460
   164  15  4 -0.30560   2.780   9.150 -69.830
   165  15  3  0.20000   2.050   8.390 -70.880
   166  16  1  0.19600  18.150  25.700 -13.350
   167  16  2  0.08720  19.730  26.540 -13.960
   168  16  3  0.06560  20.660  25.490 -14.740
   169  16  2  0.08720  18.550  24.350 -12.080
   170  16  3  0.06560  19.400  23.180 -12.770
   171  16  2  0.08720  17.220  24.960 -14.820
   172  16  3  0.06560  15.860  24.280 -14.320
   173  16  2  0.10880  17.050  27.000 -12.520
   174  16  2  0.14240  16.640  28.130 -13.580
   175  16  4 -0.30560  15.760  29.130 -12.930
   176  16  3  0.20000  15.330  30.140 -13.930
   177  17  1  0.19600  26.730  17.360  14.460
   178  17  2  0.08720  27.480  17.270  16.200
   179  17  3  0.06560  27.950  18.720  16.690
   180  17  2  0.08720  28.020  17.930  13.200
   181  17  3  0.06560  28.510  19.420  13.520
   182  17  2  0.08720  25.260  18.570  14.470
   183  17  3  0.06560  24.600  18.610  13.010
   184  17  2  0.10880  26.110  15.640  13.970
   185  17  2  0.14240  24.970  15.160  14.990
   186  17  4 -0.30560  24.480  13.820  14.580
   187  17  3  0.20000  23.370  13.410  15.480
   188  18  1  0.19600  18.130  29.220  65.250
   189  18  2  0.08720  17.170  27.590  65.180
   190  18  3  0.06560  17.120  26.900  66.630
   191  18  2  0.08720  19.940  28.920  65.720
   192  18  3  0.06560  20.040  28.310  67.200
   193  18  2  0.08720  17.330  30.380  66.520
   194  18  3  0.06560  18.110  31.780  66.550
   195  18  2  0.10880  18.080  30.040  63.540
   196  18  2  0.14240  16.560  30.370  63.150
   197  18  4 -0.30560  16.530  31.030  61.820
   198  18  3  0.20000  15.130  31.400  61.480
   199  19  1  0.19600  17.710   5.470  25.800
   200  19  2  0.08720  15.810   5.520  25.870
   201  19  3  0.06560  15.280   7.020  25.710
   202  19  2  0.08720  18.460   6.430  27.250
   203  19  3  0.06560  18.080   7.980  27.150
   204  19  2  0.08720  18.300   6.210  24.150
   205  19  3  0.06560  19.890   6.130  24.070
   206  19  2  0.10880  18.280   3.660  25.900
   207  19  2  0.14240  17.700   2.840  24.650
   208  19  4 -0.30560  18.170   1.440  24.720
   209  19  3  0.20000  17.700   0.690  23.530
   210  20  1  0.19600  27.320  24.700  38.100
   211  20  2  0.08720  26.230  25.620  39.360
   212  20  3  0.06560  25.660  24.600  40.450
   213  20  2  0.08720  26.290  23.440  37.120
   214  20  3  0.06560  25.730  22.300  38.100
   215  20  2  0.08720  28.730  23.820  39.000
   216  20  3  0.06560  29.670  23.080  37.940
   217  20  2  0.10880  28.040  25.960  36.880
   218  20  2  0.14240  28.960  27.000  37.670
   219  20  4 -0.30560  29.550  27.970  36.710
   220  20  3  0.20000  30.470  28.900  37.430
   221  21  1  0.19600   2.940  24.520  64.010
   222  21  2  0.08720   4.420  25.590  64.520
   223  21  3  0.06560   3.910  26.940  65.220
   224  21  2  0.08720   1.880  25.400  62.710
   225  21  3  0.06560   1.230  26.730  63.330
   226  21  2  0.08720   1.890  24.120  65.540
   227  21  3  0.06560   0.660  23.170  65.120
   228  21  2  0.10880   3.590  22.900  63.270
   229  21  2  0.14240   4.440  22.100  64.360
   230  21  4 -0.30560   4.920  20.820  63.780
   231  21  3  0.20000   5.650  20.050  64.820
   232  22  1  0.19600  21.560   6.030 -30.190
   233  22  2  0.08720  22.270   4.410 -30.880
   234  22  3  0.06560  23.420   4.720 -31.960
   235  22  2  0.08720  20.720   7.040 -31.560
   236  22  3  0.06560  21.800   7.490 -32.660
   237  22  2  0.08720  22.950   7.050 -29.400
   238  22  3  0.06560  22.340   8.390 -28.780
   239  22  2  0.10880  20.260   5.610 -28.870
   240  22  2  0.14240  20.960   4.810 -27.670
   241  22  4 -0.30560  19.940   4.510 -26.630
   242  22  3  0.20000  20.600   3.830 -25.480
   243  23  1  0.19600  29.290  16.350  -3.670
   244  23  2  0.08720  30.550  17.240  -4.770
   245  23  3  0.06560  31.000  16.290  -5.990
   246  23  2  0.08720  30.070  14.820  -2.860
   247  23  3  0.06560  30.480  13.740  -3.980
   248  23  2  0.08720  27.790  15.830  -4.710
   249  23  3  0.06560  26.700  15.120  -3.770
   250  23  2  0.10880  28.730  17.530  -2.300
   251  23  2  0.14240  28.010  18.810  -2.960
   252  23  4 -0.30560  27.550  19.720  -1.880
   253  23  3  0.20000  26.820  20.870  -2.480
   254  24  1  0.19600  28.270  24.770 -44.510
   255  24  2  0.08720  27.680  24.200 -46.220
   256  24  3  0.06560  27.700  25.420 -47.250
   257  24  2  0.08720  27.090  26.070 -43.790
   258  24  3  0.06560  27.090  27.390 -44.690
   259  24  2  0.08720  30.010  25.500 -44.650
   260  24  3  0.06560  30.530  25.950 -43.200
   261  24  2  0.10880  28.310  23.280 -43.340
   262  24  2  0.14240  29.350  22.190 -43.900
   263  24  4 -0.30560  29.400  21.030 -42.960
   264  24  3  0.20000  30.420  20.060 -43.440
   265  25  1  0.19600  12.160  11.560 -36.220
   266  25  2  0.08720  11.620  11.960 -38.000
   267  25  3  0.06560  12.110  10.800 -39.000
   268  25  2  0.08720  14.050  11.530 -36.080
   269  25  3  0.06560  14.650  10.340 -36.970
   270  25  2  0.08720  11.440   9.880 -35.700
   271  25  3  0.06560  11.860   9.570 -34.190
   272  25  2  0.10880  11.490  12.910 -35.070
   273  25  2  0.14240   9.890  12.920 -35.120
   274  25  4 -0.30560   9.370  13.960 -34.190
   275  25  3  0.20000   7.890  13.920 -34.190
   276  26  1  0.19600  23.260  25.720  69.140
   277  26  2  0.08720  23.100  24.010  68.350
   278  26  3  0.06560  21.740  23.300  68.810
   279  26  2  0.08720  23.360  25.580  71.030
   280  26  3  0.06560  22.010  24.970  71.620
   281  26  2  0.08720  21.770  26.780  68.660
   282  26  3  0.06560  21.910  28.250  69.290
   283  26  2  0.10880  24.840  26.550  68.510
   284  26  2  0.14240  24.750  26.740  66.920
   285  26  4 -0.30560  25.980  27.410  66.430
   286  26  3  0.20000  25.870  27.650  64.970
   287  27  1  0.19600   5.670   3.990   4.950
   288  27  2  0.08720   4.850   2.530   5.840
   289  27  3  0.06560   5.490   1.150   5.360
   290  27  2  0.08720   5.340   3.910   3.080
   291  27  3  0.06560   6.010   2.590   2.450
   292  27  2  0.08720   7.540   3.960   5.270
   293  27  3  0.06560   8.240   5.210   4.540
   294  27  2  0.10880   4.960   5.610   5.620
   295  27  2  0.14240   5.280   5.730   7.180
   296  27  4 -0.30560   4.740   7.020   7.700
   297  27  3  0.20000   5.100   7.170   9.130
   298  28  1  0.19600  21.190  20.620  16.900
   299  28  2  0.08720  21.510  20.020  15.130
   300  28  3  0.06560  22.490  21.020  14.360
   301  28  2  0.08720  20.310  22.300  16.890
   302  28  3  0.06560  21.240  23.420  16.230
   303  28  2  0.08720  22.840  20.770  17.820
   304  28  3  0.06560  22.580  21.240  19.330
   305  28  2  0.10880  20.090  19.360  17.790
   306  28  2  0.14240  20.840  17.950  17.860
   307  28  4 -0.30560  19.990  16.970  18.590
   308  28  3  0.20000  20.710  15.680  18.720
   309  29  1  0.19600  25.080  14.980 -45.480
   310  29  2  0.08720  25.990  13.760 -46.620
   311  29  3  0.06560  24.980  13.110 -47.680
   312  29  2  0.08720  23.770  14.070 -44.450
   313  29  3  0.06560  22.640  13.460 -45.400
   314  29  2  0.08720  24.250  16.330 -46.530
   315  29  3  0.06560  23.510  17.380 -45.570
   316  29  2  0.10880  26.330  15.780 -44.310
   317  29  2  0.14240  27.410  16.600 -45.150
   318  29  4 -0.30560  28.370  17.250 -44.220
   319  29  3  0.20000  29.340  18.070 -45.000
   320  30  1  0.19600  26.260   4.530 -40.890
   321  30  2  0.08720  25.390   4.540 -39.210
   322  30  3  0.06560  25.360   6.020 -38.610
   323  30  2  0.08720  28.080   5.040 -40.710
   324  30  3  0.06560  28.180   6.550 -40.200
   325  30  2  0.08720  25.380   5.710 -42.080
   326  30  3  0.06560  26.090   5.670 -43.520
   327  30  2  0.10880  26.200   2.770 -41.610
   328  30  2  0.14240  24.670   2.330 -41.830
   329  30  4 -0.30560  24.630   0.970 -42.410
   330  30  3  0.20000  23.220   0.590 -42.680
   331  31  1  0.19600   4.210  11.250 -57.060
   332  31  2  0.08720   2.420  11.370 -56.450
   333  31  3  0.06560   2.280  10.730 -54.990
   334  31  2  0.08720   4.730   9.440 -57.250
   335  31  3  0.06560   4.720   8.700 -55.830
   336  31  2  0.08720   5.360  12.130 -55.830
   337  31  3  0.06560   6.870  12.060 -56.370
   338  31  2  0.10880   4.340  12.100 -58.750
   339  31  2  0.14240   3.960  13.650 -58.600
   340  31  4 -0.30560   4.090  14.320 -59.920
   341  31  3  0.20000   3.810  15.770 -59.770
   342  32  1  0.19600  18.760   3.240 -61.100
   343  32  2  0.08720  19.160   2.240 -62.660
   344  32  3  0.06560  18.760   0.700 -62.460
   345  32  2  0.08720  19.800   2.640 -59.630
   346  32  3  0.06560  19.410   1.120 -59.270
   347  32  2  0.08720  16.920   3.080 -60.700
   348  32  3  0.06560  16.570   3.960 -59.400
   349  32  2  0.10880  19.170   5.060 -61.420
   350  32  2  0.14240  18.270   5.620 -62.620
   351  32  4 -0.30560  18.570   7.050 -62.850
   352  32  3  0.20000  17.680   7.590 -63.910
   353  33  1  0.19600  20.020  29.060 -61.270
   354  33  2  0.08720  21.770  28.330 -61.180
   355  33  3  0.06560  22.870  29.490 -61.170
   356  33  2  0.08720  19.780  30.010 -62.900
   357  33  3  0.06560  20.760  31.260 -62.970
   358  33  2  0.08720  19.740  30.230 -59.810
   359  33  3  0.06560  18.250  30.820 -59.860
   360  33  2  0.10880  18.760  27.650 -61.190
   361  33  2  0.14240  18.900  26.880 -59.800
   362  33  4 -0.30560  17.890  25.790 -59.730
   363  33  3  0.20000  17.970  25.120 -58.410
   364  34  1  0.19600  19.950  11.380 -38.870
   365  34  2  0.08720  21.070  12.910 -38.920
   366  34  3  0.06560  20.210  14.220 -39.220
   367  34  2  0.08720  19.140  11.080 -40.560
   368  34  3  0.06560  18.170  12.300 -40.930
   369  34  2  0.08720  18.610  11.620 -37.550
   370  34  3  0.06560  17.690  10.310 -37.470
   371  34  2  0.10880  21.000   9.870 -38.420
   372  34  2  0.14240  21.650  10.070 -36.970
   373  34  4 -0.30560  22.450   8.870 -36.610
   374  34  3  0.20000  22.990   9.020 -35.240
   375  35  1  0.19600   5.990  20.830  39.670
   376  35  2  0.08720   6.370  22.310  38.540
   377  35  3  0.06560   6.940  21.800  37.130
   378  35  2  0.08720   7.580  19.880  40.080
   379  35  3  0.06560   8.200  19.240  38.750
   380  35  2  0.08720   4.750  19.680  38.820
   381  35  3  0.06560   4.400  18.460  39.790
   382  35  2  0.10880   5.240  21.480  41.280
   383  35  2  0.14240   3.870  22.240  40.970
   384  35  4 -0.30560   3.270  22.710  42.250
   385  35  3  0.20000   1.960  23.360  41.970
   386  36  1  0.19600   7.050  10.620  66.060
   387  36  2  0.08720   6.120   9.050  66.590
   388  36  3  0.06560   4.610   9.410  67.000
   389  36  2  0.08720   7.200  11.840  67.510
   390  36  3  0.06560   5.740  12.350  67.950
   391  36  2  0.08720   6.150  11.440  64.610
   392  36  3  0.06560   6.960  12.740  64.140
   393  36  2  0.10880   8.800  10.130  65.510
   394  36  2  0.14240   8.710   9.140  64.250
   395  36  4 -0.30560  10.080   8.790  63.800
   396  36  3  0.20000  10.000   7.930  62.590
   397  37  1  0.19600  20.280  24.400  -8.840
   398  37  2  0.08720  21.300  22.830  -9.170
   399  37  3  0.06560  20.740  22.060 -10.460
   400  37  2  0.08720  18.490  23.960  -8.420
   401  37  3  0.06560  17.780  23.260  -9.680
   402  37  2  0.08720  20.330  25.520 -10.360
   403  37  3  0.06560  19.510  26.870 -10.070
   404  37  2  0.10880  21.040  25.320  -7.360
   405  37  2  0.14240  22.540  25.750  -7.710
   406  37  4 -0.30560  23.120  26.500  -6.560
   407  37  3  0.20000  24.490  26.970  -6.910
   408  38  1  0.19600  16.680  20.380 -15.930
   409  38  2  0.08720  15.930  19.830 -17.580
   410  38  3  0.06560  14.770  18.750 -17.330
   411  38  2  0.08720  17.530  18.920 -15.060
   412  38  3  0.06560  16.450  17.800 -14.670
   413  38  2  0.08720  15.330  21.090 -14.810
   414  38  3  0.06560  15.970  21.590 -13.430
   415  38  2  0.10880  17.980  21.720 -16.260
   416  38  2  0.14240  17.290  22.990 -16.940
   417  38  4 -0.30560  18.310  24.040 -17.180
   418  38  3  0.20000  17.650  25.250 -17.740
   419  39  1  0.19600  22.970  24.440 -44.270
   420  39  2  0.08720  21.760  24.690 -45.710
   421  39  3  0.06560  20.860  23.380 -45.910
   422  39  2  0.08720  24.190  23.040 -44.650
   423  39  3  0.06560  23.410  21.650 -44.780
   424  39  2  0.08720  22.000  24.050 -42.690
   425  39  3  0.06560  23.010  23.880 -41.460
   426  39  2  0.10880  23.950  26.050 -44.010
   427  39  2  0.14240  22.940  27.240 -43.630
   428  39  4 -0.30560  23.720  28.480 -43.410
   429  39  3  0.20000  22.800  29.570 -42.980
   430  40  1  0.19600  16.150   6.730 -45.610
   431  40  2  0.08720  15.230   5.100 -45.320
   432  40  3  0.06560  16.220   4.010 -44.680
   433  40  2  0.08720  17.540   6.510 -46.880
   434  40  3  0.06560  18.650   5.500 -46.310
   435  40  2  0.08720  16.860   7.370 -43.980
   436  40  3  0.06560  17.600   8.770 -44.220
   437  40  2  0.10880  14.920   8.010 -46.290
   438  40  2  0.14240  13.760   8.270 -45.210
   439  40  4 -0.30560  12.820   9.290 -45.740
   440  40  3  0.20000  11.790   9.580 -44.710
   441  41  1  0.19600  24.240  20.390 -20.330
   442  41  2  0.08720  24.010  19.400 -18.730
   443  41  3  0.06560  23.140  18.080 -19.010
   444  41  2  0.08720  22.580  21.010 -20.980
   445  41  3  0.06560  21.650  19.780 -21.400
   446  41  2  0.08720  25.090  19.310 -21.630
   447  41  3  0.06560  25.330  20.160 -22.970
   448  41  2  0.10880  25.340  21.890 -19.960
   449  41  2  0.14240  26.780  21.390 -19.450
   450  41  4 -0.30560  27.650  22.570 -19.190
   451  41  3  0.20000  29.000  22.110 -18.800
   452  42  1  0.19600  27.040  10.680  41.650
   453  42  2  0.08720  27.440   8.930  42.260
   454  42  3  0.06560  28.820   8.920  43.070
   455  42  2  0.08720  28.350  11.270  40.410
   456  42  3  0.06560  29.770  11.390  41.130
   457  42  2  0.08720  26.960  11.860  43.120
   458  42  3  0.06560  26.580  13.330  42.610
   459  42  2  0.10880  25.350  10.650  40.770
   460  42  2  0.14240  24.220  10.210  41.810
   461  42  4 -0.30560  22.900  10.220  41.130
   462  42  3  0.20000  21.830   9.880  42.110
   463  43  1  0.19600  11.970  13.460  16.460
   464  43  2  0.08720  11.080  12.170  15.390
   465  43  3  0.06560   9.490  12.380  15.460
   466  43  2  0.08720  11.510  13.240  18.290
   467  43  3  0.06560   9.950  13.520  18.510
   468  43  2  0.08720  11.500  15.200  15.890
   469  43  3  0.06560  12.280  16.290  16.760
   470  43  2  0.10880  13.840  13.220  16.270
   471  43  2  0.14240  14.260  13.460  14.750
   472  43  4 -0.30560  15.730  13.310  14.610
   473  43  3  0.20000  16.130  13.600  13.210
   474  44  1  0.19600  10.400  23.020 -18.790
   475  44  2  0.08720  10.790  21.230 -18.280
   476  44  3  0.06560  12.150  21.180 -17.440
   477  44  2  0.08720  11.740  23.690 -19.950
   478  44  3  0.06560  13.150  23.770 -19.180
   479  44  2  0.08720  10.270  24.110 -17.250
   480  44  3  0.06560   9.900  25.610 -17.680
   481  44  2  0.10880   8.740  23.040 -19.710
   482  44  2  0.14240   7.580  22.530 -18.730
   483  44  4 -0.30560   6.280  22.580 -19.450
   484  44  3  0.20000   5.190  22.180 -18.520
   485  45  1  0.19600  27.040   6.630  54.780
   486  45  2  0.08720  25.780   7.900  55.410
   487  45  3  0.06560  24.640   7.170  56.270
   488  45  2  0.08720  26.220   5.390  53.600
   489  45  3  0.06560  25.120   4.530  54.380
   490  45  2  0.08720  27.810   5.700  56.250
   491  45  3  0.06560  28.900   4.660  55.730
   492  45  2  0.10880  28.410   7.540  53.840
   493  45  2  0.14240  29.160   8.550  54.830
   494  45  4 -0.30560  30.260   9.240  54.100
   495  45  3  0.20000  31.000  10.120  55.030
   496  46  1  0.19600  12.980   5.650 -68.980
   497  46  2  0.08720  11.450   6.240 -68.040
   498  46  3  0.06560  10.120   5.660 -68.720
   499  46  2  0.08720  12.980   6.320 -70.760
   500  46  3  0.06560  11.740   5.730 -71.580
   501  46  2  0.08720  13.020   3.750 -69.010
   502  46  3  0.06560  14.340   3.250 -69.770
   503  46  2  0.10880  14.530   6.290 -68.100
   504  46  2  0.14240  14.590   5.690 -66.610
   505  46  4 -0.30560  15.820   6.170 -65.930
   506  46  3  0.20000  15.910   5.560 -64.580
   507  47  1  0.19600  25.180  26.860 -22.830
   508  47  2  0.08720  23.990  28.330 -22.700
   509  47  3  0.06560  24.190  29.320 -23.940
   510  47  2  0.08720  26.980  27.440 -22.730
   511  47  3  0.06560  27.330  28.380 -23.980
   512  47  2  0.08720  24.890  25.950 -24.470
   513  47  3  0.06560  25.860  24.680 -24.570
   514  47  2  0.10880  24.850  25.670 -21.400
   515  47  2  0.14240  23.350  25.110 -21.500
   516  47  4 -0.30560  23.100  24.160 -20.380
   517  47  3  0.20000  21.740  23.580 -20.510
   518  48  1  0.19600  14.150  14.440 -21.990
   519  48  2  0.08720  13.050  14.910 -23.460
   520  48  3  0.06560  13.300  13.910 -24.690
   521  48  2  0.08720  15.980  14.630 -22.430
   522  48  3  0.06560  16.380  13.610 -23.590
   523  48  2  0.08720  13.790  12.650 -21.470
   524  48  3  0.06560  14.680  12.270 -20.200
   525  48  2  0.10880  13.750  15.600 -20.540
   526  48  2  0.14240  12.220  15.410 -20.100
   527  48  4 -0.30560  11.920  16.300 -18.950
   528  48  3  0.20000  10.520  16.070 -18.500
   529  49  1  0.19600   8.800  11.450 -60.550
   530  49  2  0.08720   7.160  11.850 -59.690
   531  49  3  0.06560   6.620  10.580 -58.890
   532  49  2  0.08720   8.570  10.090 -61.850
   533  49  3  0.06560   8.110   8.720 -61.150
   534  49  2  0.08720  10.070  10.890 -59.250
   535  49  3  0.06560  11.470  10.590 -59.970
   536  49  2  0.10880   9.440  13.010 -61.410
   537  49  2  0.14240   9.700  14.160 -60.330
   538  49  4 -0.30560  10.230  15.370 -61.010
   539  49  3  0.20000  10.550  16.410 -60.000
   540  50  1  0.19600   4.900  25.260  57.400
   541  50  2  0.08720   5.110  24.500  59.130
   542  50  3  0.06560   5.640  25.610  60.160
   543  50  2  0.08720   6.560  25.850  56.710
   544  50  3  0.06560   7.150  27.030  57.620
   545  50  2  0.08720   3.690  26.720  57.500
   546  50  3  0.06560   3.470  27.340  56.030
   547  50  2  0.10880   4.190  23.950  56.240
   548  50  2  0.14240   2.750  23.480  56.760
   549  50  4 -0.30560   2.190  22.470  55.830
   550  50  3  0.20000   0.830  22.080  56.280
   551  51  1  0.19600  18.610  22.430   1.270
   552  51  2  0.08720  16.920  21.730   1.770
   553  51  3  0.06560  17.100  20.390   2.630
   554  51  2  0.08720  19.530  21.210   0.130
   555  51  3  0.06560  19.850  19.860   0.920
   556  51  2  0.08720  19.650  22.770   2.820
   557  51  3  0.06560  21.060  23.400   2.400
   558  51  2  0.10880  18.350  24.050   0.330
   559  51  2  0.14240  17.630  25.120   1.280
   560  51  4 -0.30560  17.450  26.400   0.550
   561  51  3  0.20000  16.840  27.410   1.460
   562  52  1  0.19600  25.860  22.500  16.140
   563  52  2  0.08720  26.270  20.740  16.690
   564  52  3  0.06560  26.160  20.610  18.280
   565  52  2  0.08720  27.120  23.740  16.830
   566  52  3  0.06560  27.050  23.770  18.430
   567  52  2  0.08720  24.120  22.970  16.730
   568  52  3  0.06560  23.750  24.440  16.220
   569  52  2  0.10880  25.910  22.580  14.240
   570  52  2  0.14240  24.810  21.590  13.630
   571  52  4 -0.30560  24.840  21.680  12.150
   572  52  3  0.20000  23.770  20.820  11.580
   573  53  1  0.19600  27.490   8.360  10.440
   574  53  2  0.08720  26.610   6.750   9.930
   575  53  3  0.06560  27.020   5.550  10.900
   576  53  2  0.08720  29.370   8.180  10.270
   577  53  3  0.06560  29.920   7.060  11.270
   578  53  2  0.08720  27.050   8.770  12.240
   579  53  3  0.06560  27.750  10.150  12.670
   580  53  2  0.10880  26.900   9.760   9.320
   581  53  2  0.14240  25.330   9.980   9.490
   582  53  4 -0.30560  24.880  11.100   8.630
   583  53  3  0.20000  23.430  11.340   8.850
   584  54  1  0.19600  25.640  12.990 -16.070
   585  54  2  0.08720  26.960  13.550 -17.310
   586  54  3  0.06560  26.640  15.020 -17.840
   587  54  2  0.08720  23.940  12.870 -16.900
   588  54  3  0.06560  23.460  14.310 -17.400
   589  54  2  0.08720  25.560  14.210 -14.620
   590  54  3  0.06560  24.470  13.720 -13.550
   591  54  2  0.10880  26.110  11.270 -15.410
   592  54  2  0.14240  27.510  11.360 -14.640
   593  54  4 -0.30560  27.860  10.020 -14.100
   594  54  3  0.20000  29.130  10.110 -13.330
   595  55  1  0.19600   6.910  16.270  21.890
   596  55  2  0.08720   8.470  15.180  21.880
   597  55  3  0.06560   8.210  13.820  22.680
   598  55  2  0.08720   6.480  16.790  23.660
   599  55  3  0.06560   6.100  15.510  24.540
   600  55  2  0.08720   5.470  15.310  21.130
   601  55  3  0.06560   4.160  16.240  21.100
   602  55  2  0.10880   7.240  17.820  20.860
   603  55  2  0.14240   7.560  17.410  19.340
   604  55  4 -0.30560   7.790  18.630  18.540
   605  55  3  0.20000   8.000  18.260  17.120
   606  56  1  0.19600  16.420  19.730  15.390
   607  56  2  0.08720  17.290  18.720  16.740
   608  56  3  0.06560  16.260  17.700  17.420
   609  56  2  0.08720  15.050  20.810  16.140
   610  56  3  0.06560  13.910  19.890  16.780
   611  56  2  0.08720  15.680  18.570  14.090
   612  56  3  0.06560  14.980  19.420  12.930
   613  56  2  0.10880  17.690  20.860  14.550
   614  56  2  0.14240  18.830  19.970  13.860
   615  56  4 -0.30560  19.810  20.860  13.180
   616  56  3  0.20000  20.820  20.040  12.480
   617  57  1  0.19600  20.450   4.930  70.190
   618  57  2  0.08720  19.960   3.170  70.710
   619  57  3  0.06560  21.180   2.470  71.490
   620  57  2  0.08720  21.890   4.890  68.950
   621  57  3  0.06560  23.200   4.290  69.650
   622  57  2  0.08720  20.930   5.940  71.720
   623  57  3  0.06560  21.300   7.440  71.280
   624  57  2  0.10880  18.960   5.750  69.350
   625  57  2  0.14240  17.740   5.850  70.390
   626  57  4 -0.30560  16.590   6.520  69.730
   627  57  3  0.20000  15.490   6.680  70.720
   628  58  1  0.19600   4.320   1.630 -10.770
   629  58  2  0.08720   2.430   1.650 -10.650
   630  58  3  0.06560   1.820   0.250 -11.140
   631  58  2  0.08720   4.880   1.420 -12.570
   632  58  3  0.06560   4.410   0.000 -13.140