ITEM: TIMESTEP
13692600
ITEM: NUMBER OF ATOMS
18648
ITEM: BOX BOUNDS pp pp ff
0.0000000000000000e+00 3.4268000000000001e+01
0.0000000000000000e+00 4.5000000000000000e+01
-2.2300000000000000e+02 2.2300000000000000e+02
ITEM: ATOMS id element x y z q 
1 Sc 1.71744 40.7468 65.9252 0.10017 
2 C2 1.73197 41.209 64.2228 -0.19464 
3 C3 3.22457 41.3741 66.6844 0.02374 
4 C2 4.43875 41.4113 65.6828 -0.18843 
5 C3 0.254656 41.7011 66.3875 -0.02698 
6 C3 33.2496 41.3574 65.6056 0.19697 
7 O1 32.0528 41.9496 66.1109 -0.33243 
8 C2 31.6449 41.438 67.3879 0.05146 
9 H3 1.74567 42.2968 64.1537 0.12647 
10 H3 2.56815 40.7415 63.7029 0.12647 
11 H3 0.84744 40.8549 63.6934 0.12647 
12 H2 2.89953 42.3459 67.0559 0.08439 
13 H2 3.51038 40.7253 67.5123 0.08439 
14 H3 4.19895 42.261 65.0436 0.08818 
15 H3 5.38752 41.5906 66.1886 0.08818 
16 H3 4.46356 40.5349 65.0352 0.08818 
17 H2 0.13654 41.5967 67.466 0.08558 
18 H2 0.493899 42.7175 66.0747 0.08558 
19 H2 33.4265 41.4263 64.5323 0.01562 
20 H2 33.0429 40.2889 65.5453 0.01562 
21 H3 31.4529 40.3729 67.2585 0.05167 
22 H3 32.4322 41.5465 68.1339 0.05167 
23 H3 30.692 41.8745 67.687 0.05167 
24 Sc 12.5532 27.5433 -53.4725 0.10017 
25 C2 13.2607 29.1951 -53.5078 -0.19464 
26 C3 13.97 26.5124 -53.0983 0.02374 
27 C2 14.5229 25.8711 -54.4285 -0.18843 
28 C3 11.6277 27.6144 -51.9124 -0.02698 
29 C3 10.8402 26.3306 -51.7764 0.19697 
30 O1 11.4022 25.4487 -50.8438 -0.33243 
31 C2 11.2492 25.8067 -49.486 0.05146 
32 H3 14.3275 29.2629 -53.2943 0.12647 
33 H3 13.1744 29.5754 -54.5256 0.12647 
34 H3 12.7183 29.8099 -52.7895 0.12647 
35 H2 14.755 27.1364 -52.671 0.08439 
36 H2 13.7511 25.7051 -52.3995 0.08439 
37 H3 15.1206 24.9825 -54.2253 0.08818 
38 H3 13.8115 25.4537 -55.141 0.08818 
39 H3 15.1690 26.4961 -55.0449 0.08818 
40 H2 12.2851 27.8036 -51.0638 0.08558 
41 H2 10.854 28.3803 -51.859 0.08558 
42 H2 9.82224 26.5794 -51.4765 0.01562 
43 H2 10.5931 25.849 -52.7224 0.01562 
44 H3 11.2171 26.8743 -49.2688 0.05167 
45 H3 10.3358 25.3353 -49.1234 0.05167 
46 H3 12.0639 25.3295 -48.9414 0.05167 
47 Sc 23.1885 18.1645 -45.4233 0.10017 
48 C2 24.8522 18.8209 -45.1679 -0.19464 
49 C3 22.1507 19.2271 -44.3593 0.02374 
50 C2 22.3083 18.6074 -42.9296 -0.18843 
51 C3 22.9774 18.9028 -47.133 -0.02698 
52 C3 21.5897 18.7665 -47.68 0.19697 
53 O1 21.504 19.4957 -48.9714 -0.33243 
54 C2 20.3413 19.0538 -49.709 0.05146 
55 H3 25.4713 18.3855 -45.9523 0.12647 
56 H3 24.7318 19.8753 -45.4165 0.12647 
57 H3 25.2427 18.4773 -44.21 0.12647 
58 H2 22.6803 20.17 -44.4953 0.08439 
59 H2 21.139 19.2517 -44.7642 0.08439 
60 H3 23.3185 18.2718 -42.6954 0.08818 
61 H3 22.0617 19.3147 -42.1378 0.08818 
62 H3 21.6755 17.7515 -42.6945 0.08818 
63 H2 23.2599 19.9554 -47.1528 0.08558 
64 H2 23.6316 18.2955 -47.7587 0.08558 
65 H2 21.4236 17.709 -47.8855 0.01562 
66 H2 20.9136 19.0695 -46.8806 0.01562 
67 H3 20.0782 19.7092 -50.5393 0.05167 
68 H3 20.557 18.0359 -50.0336 0.05167 
69 H3 19.3965 18.9666 -49.1726 0.05167 
70 Sc 14.1507 40.6211 -67.9968 0.10017 
71 C2 15.578 40.9106 -66.9247 -0.19464 
72 C3 12.8968 41.4989 -67.031 0.02374 
73 C2 11.6054 41.3202 -67.8277 -0.18843 
74 C3 14.3865 41.6718 -69.3996 -0.02698 
75 C3 14.521 40.8676 -70.702 0.19697 
76 O1 15.0552 41.8067 -71.7047 -0.33243 
77 C2 15.3474 41.233 -73.0294 0.05146 
78 H3 15.3792 40.4951 -65.9368 0.12647 
79 H3 16.4874 40.5482 -67.4041 0.12647 
80 H3 15.6109 41.9956 -66.8259 0.12647 
81 H2 12.8026 40.9288 -66.1068 0.08439 
82 H2 13.146 42.515 -66.7252 0.08439 
83 H3 11.672 41.6327 -68.8698 0.08818 
84 H3 11.2551 40.3011 -67.9915 0.08818 
85 H3 10.8123 41.841 -67.2912 0.08818 
86 H2 13.7397 42.5485 -69.3648 0.08558 
87 H2 15.3859 42.062 -69.2073 0.08558 
88 H2 15.1882 40.0076 -70.6428 0.01562 
89 H2 13.4884 40.5551 -70.8573 0.01562 
90 H3 15.9256 41.9894 -73.5602 0.05167 
91 H3 16.081 40.4288 -72.9741 0.05167 
92 H3 14.4639 40.9462 -73.5997 0.05167 
93 Sc 23.9003 40.7912 -51.6021 0.10017 
94 C2 24.711 41.3026 -53.1626 -0.19464 
95 C3 24.7505 41.896 -50.4079 0.02374 
96 C2 25.1667 41.068 -49.1815 -0.18843 
97 C3 22.1848 41.4357 -51.7519 -0.02698 
98 C3 21.5693 41.2201 -50.359 0.19697 
99 O1 20.2586 40.8553 -50.5385 -0.33243 
100 C2 19.4995 40.9181 -49.3043 0.05146 
101 H3 24.5103 42.3335 -53.4542 0.12647 
102 H3 25.7948 41.2585 -53.0553 0.12647 
103 H3 24.5452 40.7579 -54.0921 0.12647 
104 H2 25.6279 42.4112 -50.7988 0.08439 
105 H2 24.0674 42.666 -50.0495 0.08439 
106 H3 24.2641 40.5229 -48.9051 0.08818 
107 H3 25.9643 40.3828 -49.4685 0.08818 
108 H3 25.601 41.7073 -48.4129 0.08818 
109 H2 22.1334 42.4992 -51.9855 0.08558 
110 H2 21.641 40.7989 -52.4496 0.08558 
111 H2 22.0526 40.5193 -49.6783 0.01562 
112 H2 21.6339 42.1601 -49.8109 0.01562 
113 H3 19.726 40.161 -48.5535 0.05167 
114 H3 19.7132 41.7926 -48.6897 0.05167 
115 H3 18.4473 40.7275 -49.5159 0.05167 
116 Sc 2.18611 6.86587 11.8028 0.10017 
117 C2 1.65737 7.63655 10.2202 -0.19464 
118 C3 2.36313 5.18544 11.2556 0.02374 
119 C2 0.939538 4.44899 10.9564 -0.18843 
120 C3 3.91413 7.36148 11.7455 -0.02698 
121 C3 4.15351 8.65008 12.5409 0.19697 
122 O1 3.66758 8.67104 13.8289 -0.33243 
123 C2 4.56766 8.21368 14.8664 0.05146 
124 H3 2.28903 7.3282 9.38711 0.12647 
125 H3 0.625142 7.38057 9.9813 0.12647 
126 H3 1.77704 8.7199 10.2318 0.12647 
127 H2 3.00789 5.23582 10.3782 0.08439 
128 H2 2.9158 4.64538 12.0244 0.08439 
129 H3 0.34588 5.10193 10.3166 0.08818 
130 H3 0.996659 3.57528 10.3072 0.08818 
131 H3 0.471009 4.10294 11.8777 0.08818 
132 H2 4.47025 6.49682 12.1077 0.08558 
133 H2 4.24386 7.55933 10.7255 0.08558 
134 H2 5.21258 8.90774 12.5312 0.01562 
135 H2 3.74757 9.56834 12.1166 0.01562 
136 H3 4.10664 7.89515 15.8013 0.05167 
137 H3 5.21774 7.3759 14.6141 0.05167 
138 H3 5.30395 8.9779 15.1153 0.05167 
139 Sc 0.563826 42.5489 -35.637 0.10017 
140 C2 33.3555 43.5453 -35.6605 -0.19464 
141 C3 1.08282 42.9103 -33.9077 0.02374 
142 C2 1.35423 44.3817 -33.7336 -0.18843 
143 C3 -0.0062758 40.8617 -35.369 -0.02698 
144 C3 1.28439 39.9639 -35.3539 0.19697 
145 O1 1.30581 39.2473 -34.1659 -0.33243 
146 C2 2.45957 38.4696 -33.876 0.05146 
147 H3 32.6687 43.481 -34.8166 0.12647 
148 H3 33.6313 44.5766 -35.8804 0.12647 
149 H3 32.805 43.1872 -36.5305 0.12647 
150 H2 0.395532 42.6181 -33.1138 0.08439 
151 H2 1.99779 42.3405 -33.7458 0.08439 
152 H3 0.569096 45.1316 -33.8305 0.08818 
153 H3 1.78524 44.6102 -32.7588 0.08818 
154 H3 2.0819 44.7528 -34.4553 0.08818 
155 H2 33.624 40.6343 -34.5148 0.08558 
156 H2 33.7005 40.7371 -36.2951 0.08558 
157 H2 1.36839 39.2896 -36.2061 0.01562 
158 H2 2.13393 40.6139 -35.5634 0.01562 
159 H3 2.47369 37.6269 -34.5672 0.05167 
160 H3 3.35521 39.0886 -33.9295 0.05167 
161 H3 2.40947 37.9768 -32.9051 0.05167 
162 Sc 1.12671 36.1776 14.3235 0.10017 
163 C2 1.29482 34.7473 13.1191 -0.19464 
164 C3 2.85821 36.6549 14.6248 0.02374 
165 C2 3.58479 35.5933 15.3468 -0.18843 
166 C3 0.638702 37.3475 13.1165 -0.02698 
167 C3 -0.0599698 38.4806 13.7864 0.19697 
168 O1 0.108764 39.6652 13.0394 -0.33243 
169 C2 33.8023 40.8122 13.4672 0.05146 
170 H3 2.04398 34.9868 12.3644 0.12647 
171 H3 1.67075 33.7682 13.416 0.12647 
172 H3 0.436856 34.3622 12.568 0.12647 
173 H2 3.26305 36.9444 13.655 0.08439 
174 H2 2.9675 37.5689 15.2085 0.08439 
175 H3 3.19839 35.215 16.2932 0.08818 
176 H3 3.64461 34.6827 14.7507 0.08818 
177 H3 4.51216 36.0499 15.6927 0.08818 
178 H2 1.54389 37.7614 12.6721 0.08558 
179 H2 34.3515 36.8762 12.3055 0.08558 
180 H2 33.2145 38.1754 14.1148 0.01562 
181 H2 0.344647 38.6599 14.7825 0.01562 
182 H3 34.5587 41.2928 14.0877 0.05167 
183 H3 33.415 41.4301 12.657 0.05167 
184 H3 32.8645 40.6586 14.0012 0.05167 
185 Sc 9.56176 11.8116 -29.9804 0.10017 
186 C2 9.83826 13.4197 -30.7644 -0.19464 
187 C3 8.38805 11.1886 -31.1604 0.02374 
188 C2 7.02153 11.7128 -30.6747 -0.18843 
189 C3 11.0464 10.9974 -30.4838 -0.02698 
190 C3 11.052 9.5413 -29.9441 0.19697 
191 O1 10.161 8.57624 -30.5781 -0.33243 
192 C2 10.6596 7.34903 -31.1779 0.05146 
193 H3 9.6247 13.2746 -31.8234 0.12647 
194 H3 9.20691 14.1781 -30.3015 0.12647 
195 H3 10.8402 13.848 -30.7356 0.12647 
196 H2 8.62021 11.562 -32.1578 0.08439 
197 H2 8.4696 10.1036 -31.2264 0.08439 
198 H3 6.7139 11.1171 -29.8153 0.08818 
199 H3 7.00108 12.7821 -30.4646 0.08818 
200 H3 6.35811 11.6306 -31.5357 0.08818 
201 H2 11.144 11.1349 -31.5607 0.08558 
202 H2 11.8896 11.5617 -30.0856 0.08558 
203 H2 12.0692 9.15243 -29.9919 0.01562 
204 H2 10.7848 9.43267 -28.893 0.01562 
205 H3 9.83183 6.65571 -31.0291 0.05167 
206 H3 10.9843 7.53582 -32.2015 0.05167 
207 H3 11.4894 7.00015 -30.5632 0.05167 
208 Sc 32.0443 8.81488 -17.2208 0.10017 
209 C2 31.8865 8.2632 -15.4581 -0.19464 
210 C3 30.9488 7.58688 -18.0654 0.02374 
211 C2 31.4934 6.21165 -17.9956 -0.18843 
212 C3 31.0202 10.3274 -17.1483 -0.02698 
213 C3 31.1963 10.9526 -18.5166 0.19697 
214 O1 32.4855 10.856 -18.9624 -0.33243 
215 C2 32.7195 10.7799 -20.3841 0.05146 
216 H3 32.7377 8.43443 -14.7991 0.12647 
217 H3 31.0076 8.52819 -14.8703 0.12647 
218 H3 31.8827 7.191 -15.262 0.12647 
219 H2 29.8928 7.63337 -17.799 0.08439 
220 H2 31.0467 7.88716 -19.1086 0.08439 
221 H3 31.5674 5.89737 -16.9545 0.08818 
222 H3 30.8714 5.48309 -18.5156 0.08818 
223 H3 32.3778 6.15581 -18.6304 0.08818 
224 H2 30.0026 10.0302 -16.8947 0.08558 
225 H2 31.3827 11.1323 -16.509 0.08558 
226 H2 30.6643 10.3969 -19.2888 0.01562 
227 H2 30.8248 11.9763 -18.469 0.01562 
228 H3 32.1893 9.93058 -20.815 0.05167 
229 H3 32.5256 11.5167 -21.1636 0.05167 
230 H3 33.7779 10.5512 -20.509 0.05167 
231 Sc 32.8631 40.5629 -28.7329 0.10017 
232 C2 32.7151 42.2272 -29.6076 -0.19464 
233 C3 -0.0571259 40.8866 -27.5557 0.02374 
234 C2 0.354514 39.7212 -26.8526 -0.18843 
235 C3 31.5061 40.5323 -27.5443 -0.02698 
236 C3 30.1258 40.5217 -28.2973 0.19697 
237 O1 28.9993 40.6033 -27.4695 -0.33243 
238 C2 28.4035 41.9159 -27.3586 0.05146 
239 H3 32.5294 43.0087 -28.8708 0.12647 
240 H3 33.6549 42.3728 -30.1402 0.12647 
241 H3 31.8206 42.2307 -30.2305 0.12647 
242 H2 0.727006 40.9243 -28.3119 0.08439 
243 H2 34.0527 41.8155 -27.0077 0.08439 
244 H3 0.896217 38.9665 -27.4228 0.08818 
245 H3 1.08751 40.0547 -26.118 0.08818 
246 H3 33.7462 39.2678 -26.3894 0.08818 
247 H2 31.3899 39.6071 -26.9799 0.08558 
248 H2 31.6257 41.2258 -26.7119 0.08558 
249 H2 30.0851 41.3614 -28.9911 0.01562 
250 H2 30.1946 39.6312 -28.9221 0.01562 
251 H3 27.5486 41.9215 -26.6824 0.05167 
252 H3 29.0562 42.6812 -26.9385 0.05167 
253 H3 28.0965 42.3891 -28.2914 0.05167 
254 Sc 12.5626 9.86195 48.863 0.10017 
255 C2 11.0744 10.5955 49.6617 -0.19464 
256 C3 11.8344 8.34629 47.9835 0.02374 
257 C2 13.0817 7.42126 47.83 -0.18843 
258 C3 12.8846 10.9735 47.3343 -0.02698 
259 C3 14.0862 10.5342 46.6283 0.19697 
260 O1 14.5205 11.6646 45.9886 -0.33243 
261 C2 15.8406 11.6861 45.3605 0.05146 
262 H3 11.2853 11.5957 50.04 0.12647 
263 H3 10.1789 10.6975 49.0487 0.12647 
264 H3 10.9577 9.8968 50.4901 0.12647 
265 H2 11.0979 7.8931 48.6471 0.08439 
266 H2 11.3194 8.75855 47.1158 0.08439 
267 H3 13.2049 6.92256 48.7914 0.08818 
268 H3 13.0618 6.7063 47.0075 0.08818 
269 H3 13.8562 8.09307 47.46 0.08818 
270 H2 12.0312 10.8502 46.6674 0.08558 
271 H2 12.8762 12.0252 47.6204 0.08558 
272 H2 14.8894 10.1731 47.2705 0.01562 
273 H2 13.7735 9.85341 45.8365 0.01562 
274 H3 16.5554 11.4917 46.1601 0.05167 
275 H3 15.8099 10.6975 44.9024 0.05167 
276 H3 16.0335 12.4866 44.6462 0.05167 
277 Sc 8.84669 19.2968 56.4594 0.10017 
278 C2 10.0176 18.3058 57.4008 -0.19464 
279 C3 8.97814 18.6076 54.7511 0.02374 
280 C2 10.4678 18.7353 54.3503 -0.18843 
281 C3 7.20777 18.4372 56.7565 -0.02698 
282 C3 6.43198 18.7619 58.0345 0.19697 
283 O1 7.21498 18.2197 59.1099 -0.33243 
284 C2 6.86003 18.4291 60.4258 0.05146 
285 H3 10.5157 19.0031 58.0745 0.12647 
286 H3 9.77599 17.5178 58.1141 0.12647 
287 H3 10.8163 17.9108 56.7731 0.12647 
288 H2 8.53059 17.6201 54.6386 0.08439 
289 H2 8.35546 19.3444 54.2435 0.08439 
290 H3 11.2333 18.2453 54.952 0.08818 
291 H3 10.5833 18.1945 53.4109 0.08818 
292 H3 10.6957 19.7816 54.1471 0.08818 
293 H2 6.55101 18.5735 55.8973 0.08558 
294 H2 7.50056 17.3896 56.827 0.08558 
295 H2 6.42053 19.8505 58.0884 0.01562 
296 H2 5.42985 18.3369 58.0909 0.01562 
297 H3 7.64792 18.4985 61.1758 0.05167 
298 H3 6.34169 19.3762 60.5753 0.05167 
299 H3 6.29644 17.6546 60.946 0.05167 
300 Sc 31.406 27.9324 2.26712 0.10017 
301 C2 29.7103 27.7565 1.53425 -0.19464 
302 C3 31.5872 26.385 3.3642 0.02374 
303 C2 31.3439 26.6337 4.82114 -0.18843 
304 C3 32.1152 27.575 0.631233 -0.02698 
305 C3 33.6699 27.5658 0.835154 0.19697 
306 O1 34.0134 28.8565 1.3118 -0.33243 
307 C2 1.06055 29.3428 1.24572 0.05146 
308 H3 28.9145 28.2007 2.13217 0.12647 
309 H3 29.7285 28.2126 0.544465 0.12647 
310 H3 29.5213 26.6942 1.37964 0.12647 
311 H2 30.8435 25.6528 3.04965 0.08439 
312 H2 32.4859 25.786 3.21751 0.08439 
313 H3 30.667 25.9256 5.29922 0.08818 
314 H3 32.2579 26.628 5.41504 0.08818 
315 H3 30.8762 27.6102 4.94669 0.08818 
316 H2 31.7171 26.6669 0.178523 0.08558 
317 H2 31.8329 28.3942 -0.0301002 0.08558 
318 H2 34.0919 26.7384 1.4057 0.01562 
319 H2 34.2099 27.4631 -0.106104 0.01562 
320 H3 1.56335 28.8324 0.424272 0.05167 
321 H3 1.13316 30.3611 0.863732 0.05167 
322 H3 1.70141 29.1547 2.10712 0.05167 
323 Sc 12.443 33.433 -56.747 0.10017 
324 C2 10.7776 33.3228 -56.8719 -0.19464 
325 C3 12.6512 32.825 -55.0792 0.02374 
326 C2 12.1693 33.8994 -54.0729 -0.18843 
327 C3 12.9112 31.9025 -57.6251 -0.02698 
328 C3 13.1927 32.246 -59.1285 0.19697 
329 O1 13.9462 33.505 -59.4602 -0.33243 
330 C2 14.5486 33.6015 -60.7169 0.05146 
331 H3 10.4268 32.3913 -56.4278 0.12647 
332 H3 10.2799 34.1909 -56.4397 0.12647 
333 H3 10.5196 33.6337 -57.8843 0.12647 
334 H2 12.1445 31.8608 -55.0377 0.08439 
335 H2 13.7268 32.6814 -54.9755 0.08439 
336 H3 11.4049 33.5081 -53.4015 0.08818 
337 H3 12.979 34.3021 -53.4645 0.08818 
338 H3 11.673 34.7124 -54.6028 0.08818 
339 H2 13.883 31.6277 -57.2151 0.08558 
340 H2 12.1383 31.161 -57.4229 0.08558 
341 H2 13.6765 31.4079 -59.6301 0.01562 
342 H2 12.2157 32.1584 -59.6039 0.01562 
343 H3 15.2116 32.739 -60.6493 0.05167 
344 H3 13.9444 33.3711 -61.5943 0.05167 
345 H3 15.2821 34.3927 -60.8721 0.05167 
346 Sc 31.702 34.7885 -36.2053 0.10017 
347 C2 31.8134 34.9131 -37.9886 -0.19464 
348 C3 30.7613 33.2058 -36.0547 0.02374 
349 C2 29.5997 33.4711 -35.0647 -0.18843 
350 C3 33.3757 34.4623 -35.6908 -0.02698 
351 C3 33.4751 34.3283 -34.1491 0.19697 
352 O1 0.355043 33.5159 -34.0773 -0.33243 
353 C2 0.810278 33.2351 -32.7223 0.05146 
354 H3 32.4285 34.0642 -38.2873 0.12647 
355 H3 30.8323 34.7517 -38.4353 0.12647 
356 H3 32.2593 35.8891 -38.1801 0.12647 
357 H2 30.4517 32.7887 -37.013 0.08439 
358 H2 31.4638 32.4963 -35.6175 0.08439 
359 H3 29.9532 34.0221 -34.1931 0.08818 
360 H3 28.7661 34.0673 -35.4357 0.08818 
361 H3 29.112 32.5303 -34.8095 0.08818 
362 H2 33.8112 33.5653 -36.131 0.08558 
363 H2 33.9962 35.3143 -35.9686 0.08558 
364 H2 33.5637 35.3072 -33.6781 0.01562 
365 H2 32.5458 33.9191 -33.7526 0.01562 
366 H3 0.0604515 33.1919 -31.9324 0.05167 
367 H3 1.57744 32.4628 -32.7789 0.05167 
368 H3 1.32443 34.157 -32.4505 0.05167 
369 Sc 12.7593 0.874761 -16.9472 0.10017 
370 C2 11.0127 0.255224 -17.1758 -0.19464 
371 C3 12.7867 2.28288 -15.833 0.02374 
372 C2 14.2076 2.96881 -15.8614 -0.18843 
373 C3 13.5522 44.552 -15.9335 -0.02698 
374 C3 13.9984 43.3665 -16.7667 0.19697 
375 O1 15.1012 42.7501 -16.0842 -0.33243 
376 C2 15.7896 41.557 -16.5539 0.05146 
377 H3 10.5629 0.523122 -18.1318 0.12647 
378 H3 10.9153 44.1906 -16.9629 0.12647 
379 H3 10.3322 0.801333 -16.5224 0.12647 
380 H2 12.1258 3.03557 -16.2628 0.08439 
381 H2 12.4911 2.00056 -14.8226 0.08439 
382 H3 14.1338 3.87089 -15.254 0.08818 
383 H3 14.8088 2.27158 -15.2779 0.08818 
384 H3 14.7394 3.11803 -16.801 0.08818 
385 H2 14.4261 -0.0543434 -15.4145 0.08558 
386 H2 12.8962 44.2169 -15.1301 0.08558 
387 H2 13.2402 42.5856 -16.8246 0.01562 
388 H2 14.331 43.8737 -17.6723 0.01562 
389 H3 15.8821 40.7643 -15.8114 0.05167 
390 H3 15.2999 41.0044 -17.3557 0.05167 
391 H3 16.7166 41.8736 -17.032 0.05167 
392 Sc 31.6333 26.2069 -6.74876 0.10017 
393 C2 33.393 25.8866 -6.62387 -0.19464 
394 C3 31.0737 25.305 -5.28913 0.02374 
395 C2 30.387 24.0023 -5.73182 -0.18843 
396 C3 31.4822 27.9202 -6.03981 -0.02698 
397 C3 30.0364 28.4131 -5.72231 0.19697 
398 O1 29.858 28.2714 -4.30816 -0.33243 
399 C2 28.7646 28.9703 -3.77646 0.05146 
400 H3 33.9879 26.25 -7.46178 0.12647 
401 H3 33.7939 26.3549 -5.72496 0.12647 
402 H3 33.7237 24.848 -6.63012 0.12647 
403 H2 31.8574 25.0243 -4.58554 0.08439 
404 H2 30.3402 25.8177 -4.66692 0.08439 
405 H3 29.4718 24.0595 -6.32109 0.08818 
406 H3 31.161 23.4879 -6.30138 0.08818 
407 H3 29.9879 23.3117 -4.98885 0.08818 
408 H2 32.1428 28.0202 -5.17858 0.08558 
409 H2 31.932 28.5067 -6.84096 0.08558 
410 H2 29.8404 29.4536 -5.98127 0.01562 
411 H2 29.2317 27.809 -6.14135 0.01562 
412 H3 28.9243 30.0195 -3.52784 0.05167 
413 H3 27.9078 28.8189 -4.43306 0.05167 
414 H3 28.634 28.5917 -2.7627 0.05167 
415 Sc 23.1767 25.7476 -40.9032 0.10017 
416 C2 21.5811 25.7338 -41.8159 -0.19464 
417 C3 24.2326 26.7021 -41.9926 0.02374 
418 C2 24.1636 26.0476 -43.3509 -0.18843 
419 C3 22.8283 26.9614 -39.6275 -0.02698 
420 C3 23.8288 26.6941 -38.4382 0.19697 
421 O1 25.1374 26.9916 -38.8879 -0.33243 
422 C2 25.5235 28.3954 -38.9473 0.05146 
423 H3 20.7803 25.1977 -41.3066 0.12647 
424 H3 21.2377 26.7619 -41.9307 0.12647 
425 H3 21.7486 25.3493 -42.822 0.12647 
426 H2 23.9376 27.7403 -41.8407 0.08439 
427 H2 25.2705 26.5285 -41.7084 0.08439 
428 H3 25.0334 26.1909 -43.9919 0.08818 
429 H3 24.1423 24.9794 -43.1354 0.08818 
430 H3 23.3577 26.4549 -43.9616 0.08818 
431 H2 22.8892 28.028 -39.8437 0.08558 
432 H2 21.8645 26.7475 -39.1656 0.08558 
433 H2 23.5958 27.3586 -37.6063 0.01562 
434 H2 23.7877 25.7015 -37.9896 0.01562 
435 H3 25.5272 28.7868 -37.93 0.05167 
436 H3 26.3964 28.6607 -39.5437 0.05167 
437 H3 24.791 28.8762 -39.5956 0.05167 
438 Sc 26.4564 17.8372 23.0216 0.10017 
439 C2 25.7677 17.9809 21.4514 -0.19464 
440 C3 28.2671 18.3819 22.8012 0.02374 
441 C2 28.6628 18.7897 21.3041 -0.18843 
442 C3 25.5508 19.1625 24.0811 -0.02698 
443 C3 25.565 18.5026 25.4959 0.19697 
444 O1 26.6142 19.0922 26.276 -0.33243 
445 C2 27.5302 18.3065 26.9559 0.05146 
446 H3 25.5985 19.0321 21.2181 0.12647 
447 H3 26.2986 17.4074 20.6916 0.12647 
448 H3 24.7609 17.5669 21.5071 0.12647 
449 H2 28.4492 19.1917 23.5078 0.08439 
450 H2 29.0476 17.719 23.1746 0.08439 
451 H3 28.059 19.6364 20.9775 0.08818 
452 H3 29.7146 18.9733 21.085 0.08818 
453 H3 28.4846 18.0136 20.5597 0.08818 
454 H2 26.0367 20.1264 23.9302 0.08558 
455 H2 24.5497 19.3848 23.7115 0.08558 
456 H2 24.5865 18.6925 25.9369 0.01562 
457 H2 25.6163 17.4163 25.4221 0.01562 
458 H3 27.6618 17.2796 26.6149 0.05167 
459 H3 28.4047 18.9467 26.8393 0.05167 
460 H3 27.1734 18.3748 27.9835 0.05167 
461 Sc 30.4776 36.9971 -17.6541 0.10017 
462 C2 28.8362 36.3883 -17.9986 -0.19464 
463 C3 31.4919 35.977 -18.7882 0.02374 
464 C2 31.0726 35.9436 -20.2667 -0.18843 
465 C3 30.3896 38.6512 -18.4282 -0.02698 
466 C3 30.3424 39.7474 -17.3153 0.19697 
467 O1 31.5304 39.669 -16.503 -0.33243 
468 C2 31.5623 40.356 -15.27 0.05146 
469 H3 28.1098 36.9262 -17.3894 0.12647 
470 H3 28.6343 36.5997 -19.0486 0.12647 
471 H3 28.6824 35.3386 -17.7483 0.12647 
472 H2 32.428 36.5257 -18.6844 0.08439 
473 H2 31.6364 34.9793 -18.3738 0.08439 
474 H3 30.291 35.1847 -20.3028 0.08818 
475 H3 30.7181 36.896 -20.6608 0.08818 
476 H3 31.9528 35.7694 -20.8856 0.08818 
477 H2 31.2766 38.8505 -19.0295 0.08558 
478 H2 29.4917 38.6845 -19.0452 0.08558 
479 H2 30.3321 40.754 -17.7335 0.01562 
480 H2 29.4365 39.5548 -16.7406 0.01562 
481 H3 31.2364 41.3949 -15.2181 0.05167 
482 H3 31.1599 39.8466 -14.3944 0.05167 
483 H3 32.6287 40.3549 -15.0444 0.05167 
484 Sc 22.0618 4.33531 -40.5365 0.10017 
485 C2 23.5766 3.31041 -40.6018 -0.19464 
486 C3 20.93 2.89399 -40.6894 0.02374 
487 C2 19.5028 3.39898 -40.4477 -0.18843 
488 C3 21.8795 4.76568 -38.7065 -0.02698 
489 C3 22.6796 6.02079 -38.3866 0.19697 
490 O1 22.3646 6.34802 -37.0561 -0.33243 
491 C2 23.2781 7.03227 -36.0839 0.05146 
492 H3 23.4111 2.5135 -39.8767 0.12647 
493 H3 23.7426 2.89173 -41.5944 0.12647 
494 H3 24.3727 4.00572 -40.3354 0.12647 
495 H2 21.0856 2.58777 -41.7239 0.08439 
496 H2 21.0926 1.95652 -40.1576 0.08439 
497 H3 19.4599 4.48776 -40.476 0.08818 
498 H3 18.9448 3.06491 -41.3224 0.08818 
499 H3 18.9917 3.07799 -39.54 0.08818 
500 H2 20.8129 4.83639 -38.4935 0.08558 
501 H2 22.3062 4.01059 -38.0463 0.08558 
502 H2 23.7123 5.74251 -38.5969 0.01562 
503 H2 22.4179 6.91073 -38.9589 0.01562 
504 H3 24.0552 6.30558 -35.8469 0.05167 
505 H3 23.6325 8.01232 -36.4033 0.05167 
506 H3 22.694 7.16299 -35.173 0.05167 
507 Sc 17.3017 27.0102 -43.9296 0.10017 
508 C2 18.6836 26.4368 -43.0101 -0.19464 
509 C3 17.8126 26.3384 -45.5512 0.02374 
510 C2 16.8673 26.7383 -46.5989 -0.18843 
511 C3 15.9315 25.8593 -43.562 -0.02698 
512 C3 15.3951 26.5025 -42.2241 0.19697 
513 O1 14.2293 25.9622 -41.7266 -0.33243 
514 C2 12.997 26.2256 -42.3691 0.05146 
515 H3 19.695 26.709 -43.3119 0.12647 
516 H3 18.668 26.654 -41.9421 0.12647 
517 H3 18.6352 25.3479 -43.0027 0.12647 
518 H2 18.7334 26.7793 -45.9329 0.08439 
519 H2 17.9757 25.2764 -45.3678 0.08439 
520 H3 16.8944 27.7939 -46.8693 0.08818 
521 H3 17.0435 26.1353 -47.4897 0.08818 
522 H3 15.8429 26.4627 -46.3485 0.08818 
523 H2 15.2185 26.0586 -44.3621 0.08558 
524 H2 16.2614 24.8288 -43.4305 0.08558 
525 H2 16.1757 26.3714 -41.4747 0.01562 
526 H2 15.2045 27.5727 -42.3044 0.01562 
527 H3 13.0191 25.9484 -43.423 0.05167 
528 H3 12.2312 25.5986 -41.9125 0.05167 
529 H3 12.6742 27.2667 -42.3698 0.05167 
530 Sc 0.57081 24.0759 37.8378 0.10017 
531 C2 33.0597 23.9 38.1095 -0.19464 
532 C3 1.44182 22.4921 37.6761 0.02374 
533 C2 2.90431 22.5284 37.5391 -0.18843 
534 C3 0.496491 24.4475 36.1058 -0.02698 
535 C3 0.330801 25.9083 35.7476 0.19697 
536 O1 1.07074 26.2251 34.5936 -0.33243 
537 C2 1.00615 27.5627 33.9286 0.05146 
538 H3 32.5137 24.8389 38.0185 0.12647 
539 H3 32.5118 23.1623 37.5233 0.12647 
540 H3 32.9116 23.6848 39.1678 0.12647 
541 H2 1.23977 21.7648 38.4624 0.08439 
542 H2 1.01316 22.0171 36.7936 0.08439 
543 H3 3.16718 23.4425 37.0067 0.08818 
544 H3 3.46898 22.5223 38.4714 0.08818 
545 H3 3.1981 21.6857 36.9134 0.08818 
546 H2 1.51028 24.222 35.7749 0.08558 
547 H2 -0.240222 23.8161 35.6091 0.08558 
548 H2 33.5394 26.0384 35.5264 0.01562 
549 H2 0.515291 26.6216 36.5509 0.01562 
550 H3 0.772548 28.3673 34.6259 0.05167 
551 H3 2.00944 27.7293 33.5365 0.05167 
552 H3 0.323629 27.5993 33.0796 0.05167 
553 Sc 26.9005 19.4677 -51.6602 0.10017 
554 C2 27.2946 18.8101 -50.0249 -0.19464 
555 C3 27.9423 18.5465 -52.8115 0.02374 
556 C2 29.4307 18.7764 -52.5258 -0.18843 
557 C3 25.2941 18.6781 -52.0426 -0.02698 
558 C3 24.9337 18.8141 -53.5731 0.19697 
559 O1 23.491 18.7279 -53.47 -0.33243 
560 C2 22.6272 18.568 -54.5948 0.05146 
561 H3 27.2157 17.7281 -49.9194 0.12647 
562 H3 28.372 18.9718 -50.0599 0.12647 
563 H3 26.7502 19.4136 -49.2986 0.12647 
564 H2 27.7086 17.4828 -52.7656 0.08439 
565 H2 27.6903 18.7715 -53.8478 0.08439 
566 H3 29.6355 19.8395 -52.4 0.08818 
567 H3 29.7701 18.3561 -51.5791 0.08818 
568 H3 30.0676 18.3909 -53.322 0.08818 
569 H2 25.3043 17.6662 -51.6376 0.08558 
570 H2 24.5483 19.1577 -51.4087 0.08558 
571 H2 25.217 19.7678 -54.0185 0.01562 
572 H2 25.3318 17.9168 -54.0469 0.01562 
573 H3 21.7852 19.2286 -54.388 0.05167 
574 H3 23.2803 18.9036 -55.4003 0.05167 
575 H3 22.3606 17.5309 -54.7984 0.05167 
576 Sc 21.1398 41.3802 21.4945 0.10017 
577 C2 20.6052 40.8551 19.8342 -0.19464 
578 C3 22.4857 42.4969 21.0203 0.02374 
579 C2 23.6994 42.3078 21.9758 -0.18843 
580 C3 19.9567 42.6534 22.0401 -0.02698 
581 C3 18.6759 41.9174 22.5177 0.19697 
582 O1 18.6382 41.3739 23.8645 -0.33243 
583 C2 19.0578 42.1779 24.9305 0.05146 
584 H3 21.4131 40.4406 19.2313 0.12647 
585 H3 19.7953 40.1263 19.8048 0.12647 
586 H3 20.2734 41.7244 19.2665 0.12647 
587 H2 23.1267 42.3036 20.1602 0.08439 
588 H2 22.2158 43.5518 21.0697 0.08439 
589 H3 23.537 42.7202 22.9717 0.08818 
590 H3 23.9669 41.2776 22.2105 0.08818 
591 H3 24.5571 42.676 21.413 0.08818 
592 H2 20.5128 43.2058 22.7976 0.08558 
593 H2 19.6605 43.3833 21.2867 0.08558 
594 H2 17.9826 42.7261 22.749 0.01562 
595 H2 18.3456 41.2675 21.7074 0.01562 
596 H3 18.997 43.2604 24.8178 0.05167 
597 H3 18.6164 41.9399 25.8983 0.05167 
598 H3 20.1172 41.9234 24.9602 0.05167 
599 Sc 32.8408 41.5797 -8.15282 0.10017 
600 C2 33.6744 41.3349 -6.57036 -0.19464 
601 C3 32.1859 43.2504 -7.87492 0.02374 
602 C2 31.3285 43.5314 -9.08542 -0.18843 
603 C3 0.00461196 41.8582 -9.18396 -0.02698 
604 C3 34.1169 41.2094 -10.5728 0.19697 
605 O1 33.1413 41.7951 -11.3089 -0.33243 
606 C2 32.0273 40.949 -11.7193 0.05146 
607 H3 33.7295 42.2718 -6.01611 0.12647 
608 H3 32.8763 40.8033 -6.05222 0.12647 
609 H3 0.310903 40.7376 -6.68555 0.12647 
610 H2 31.583 43.1472 -6.97269 0.08439 
611 H2 32.9981 43.9766 -7.84037 0.08439 
612 H3 30.5026 42.8374 -9.24107 0.08818 
613 H3 30.8849 44.5264 -9.0498 0.08818 
614 H3 31.9981 43.5936 -9.94325 0.08818 
615 H2 0.119458 42.9197 -9.40331 0.08558 
616 H2 0.97902 41.669 -8.73355 0.08558 
617 H2 0.838886 41.2318 -11.0282 0.01562 
618 H2 33.9123 40.1496 -10.4209 0.01562 
619 H3 32.26 40.4068 -12.6358 0.05167 
620 H3 31.6637 40.2899 -10.9311 0.05167 
621 H3 31.1783 41.5645 -12.0166 0.05167 
622 Sc 17.5322 31.3151 12.3517 0.10017 
623 C2 16.9728 31.9453 13.9554 -0.19464 
624 C3 19.2528 31.0459 12.5914 0.02374 
625 C2 19.9538 32.4164 12.7109 -0.18843 
626 C3 17.0236 29.6183 12.253 -0.02698 
627 C3 16.7367 29.2836 10.716 0.19697 
628 O1 15.7969 28.225 10.6033 -0.33243 
629 C2 15.6434 27.6061 9.30067 0.05146 
630 H3 17.5249 31.4029 14.7229 0.12647 
631 H3 17.2187 32.9976 14.0976 0.12647 
632 H3 15.9129 31.7193 14.0722 0.12647 
633 H2 19.5552 30.5529 13.5153 0.08439 
634 H2 19.7139 30.429 11.8202 0.08439 
635 H3 19.3982 32.9168 13.5041 0.08818 
636 H3 20.9569 32.3299 13.1286 0.08818 
637 H3 20.0219 32.9496 11.7627 0.08818 
638 H2 17.7955 28.9632 12.657 0.08558 
639 H2 16.1782 29.3582 12.89 0.08558 
640 H2 16.2963 30.1902 10.3011 0.01562 
641 H2 17.6269 29.038 10.1369 0.01562 
642 H3 16.4373 26.9122 9.02452 0.05167 
643 H3 14.6508 27.1714 9.18207 0.05167 
644 H3 15.8418 28.4397 8.627 0.05167 
645 Sc 32.0911 27.1098 -68.2665 0.10017 
646 C2 30.7497 28.1405 -68.9492 -0.19464 
647 C3 32.8245 26.4953 -69.8847 0.02374 
648 C2 31.7214 26.0067 -70.9382 -0.18843 
649 C3 33.4488 28.2466 -67.7585 -0.02698 
650 C3 0.258289 27.5406 -66.9293 0.19697 
651 O1 1.05909 26.5694 -67.5952 -0.33243 
652 C2 1.90929 25.7592 -66.7681 0.05146 
653 H3 29.9434 27.5079 -69.3203 0.12647 
654 H3 30.2918 28.8739 -68.2855 0.12647 
655 H3 31.1101 28.6452 -69.8457 0.12647 
656 H2 33.3925 27.3562 -70.2372 0.08439 
657 H2 33.5906 25.7633 -69.6293 0.08439 
658 H3 30.7937 26.578 -70.9725 0.08818 
659 H3 32.1156 25.7968 -71.9325 0.08818 
660 H3 31.1739 25.1035 -70.6687 0.08818 
661 H2 34.0579 28.9061 -68.3767 0.08558 
662 H2 32.9575 28.898 -67.0357 0.08558 
663 H2 1.03594 28.1396 -66.4556 0.01562 
664 H2 33.9893 26.9664 -66.1742 0.01562 
665 H3 2.71949 25.3643 -67.3811 0.05167 
666 H3 2.37421 26.3377 -65.9698 0.05167 
667 H3 1.35571 25.0303 -66.1762 0.05167 
668 Sc 17.3537 41.77 -55.119 0.10017 
669 C2 18.3701 41.1736 -56.5041 -0.19464 
670 C3 15.8372 40.8851 -55.304 0.02374 
671 C2 15.121 41.4164 -56.4939 -0.18843 
672 C3 18.2008 41.1419 -53.6016 -0.02698 
673 C3 17.5408 41.4619 -52.3251 0.19697 
674 O1 16.1287 41.728 -52.4251 -0.33243 
675 C2 15.4142 41.6666 -51.2289 0.05146 
676 H3 18.5421 40.1092 -56.6638 0.12647 
677 H3 17.998 41.5687 -57.4494 0.12647 
678 H3 19.3158 41.7149 -56.4729 0.12647 
679 H2 16.009 39.817 -55.4369 0.08439 
680 H2 15.2222 41.0602 -54.4212 0.08439 
681 H3 15.8799 41.3946 -57.2761 0.08818 
682 H3 14.2785 40.7697 -56.7389 0.08818 
683 H3 14.6826 42.4117 -56.42 0.08818 
684 H2 18.3096 40.0586 -53.652 0.08558 
685 H2 19.1884 41.6027 -53.5788 0.08558 
686 H2 17.6123 40.53 -51.7641 0.01562 
687 H2 17.9741 42.2952 -51.772 0.01562 
688 H3 14.3989 42.0577 -51.2945 0.05167 
689 H3 15.3769 40.5967 -51.0238 0.05167 
690 H3 15.7997 42.1026 -50.3072 0.05167 
691 Sc 17.2969 11.4457 -66.9694 0.10017 
692 C2 15.9338 11.4662 -65.8604 -0.19464 
693 C3 18.8426 11.3729 -66.0762 0.02374 
694 C2 19.9589 11.5693 -66.9685 -0.18843 
695 C3 17.3002 9.6449 -67.4319 -0.02698 
696 C3 16.2106 9.40345 -68.5266 0.19697 
697 O1 16.5462 10.1483 -69.7107 -0.33243 
698 C2 15.4626 11.0271 -70.1759 0.05146 
699 H3 16.0325 10.5683 -65.2504 0.12647 
700 H3 15.9588 12.355 -65.2299 0.12647 
701 H3 15.0789 11.4138 -66.5346 0.12647 
702 H2 18.8249 12.2239 -65.3953 0.08439 
703 H2 19.0797 10.4012 -65.6429 0.08439 
704 H3 19.6216 12.3155 -67.6879 0.08818 
705 H3 20.815 12.0027 -66.4514 0.08818 
706 H3 20.2752 10.6844 -67.5208 0.08818 
707 H2 18.2339 9.28704 -67.8658 0.08558 
708 H2 17.0834 9.00653 -66.5754 0.08558 
709 H2 15.9858 8.35502 -68.7225 0.01562 
710 H2 15.3101 9.89506 -68.1587 0.01562 
711 H3 15.9741 11.6466 -70.9125 0.05167 
712 H3 14.711 10.3551 -70.5902 0.05167 
713 H3 15.0143 11.6046 -69.3675 0.05167 
714 Sc 23.2439 32.4014 63.5079 0.10017 
715 C2 24.0166 30.8613 62.966 -0.19464 
716 C3 22.8044 31.9903 65.2355 0.02374 
717 C2 21.5233 32.6917 65.7116 -0.18843 
718 C3 24.6587 33.4732 63.739 -0.02698 
719 C3 25.2889 33.8854 62.4816 0.19697 
720 O1 26.7073 33.8778 62.661 -0.33243 
721 C2 27.5657 33.7924 61.5211 0.05146 
722 H3 24.0602 30.7847 61.8796 0.12647 
723 H3 24.962 30.7905 63.5039 0.12647 
724 H3 23.3868 30.0762 63.3845 0.12647 
725 H2 22.6076 30.9211 65.1558 0.08439 
726 H2 23.7023 32.1447 65.8339 0.08439 
727 H3 20.7457 32.3483 65.0294 0.08818 
728 H3 21.1994 32.4481 66.7234 0.08818 
729 H3 21.6666 33.7427 65.4604 0.08818 
730 H2 24.4223 34.3592 64.3283 0.08558 
731 H2 25.414 32.8938 64.2699 0.08558 
732 H2 24.9272 33.1668 61.7462 0.01562 
733 H2 25.0647 34.872 62.0761 0.01562 
734 H3 27.3301 34.6366 60.8732 0.05167 
735 H3 28.5917 34.0468 61.7868 0.05167 