ITEM: TIMESTEP
1981000
ITEM: NUMBER OF ATOMS
17848
ITEM: BOX BOUNDS pp pp ff
0.0000000000000000e+00 3.4868000000000002e+01
0.0000000000000000e+00 4.5000000000000000e+01
-2.2000000000000000e+02 2.2000000000000000e+02
ITEM: ATOMS id mol type element q x y z 
1 1 1 N 0.096 18.2373 31.2229 5.91598 
2 1 2 C -0.136 17.0602 30.6669 6.63205 
3 1 2 C -0.136 17.8305 31.6029 4.53792 
4 1 2 C -0.136 18.8618 32.4195 6.59977 
5 1 2 C -0.136 19.1915 30.1293 5.74665 
6 1 3 H 0.104 16.1458 31.229 6.44217 
7 1 3 H 0.104 16.6447 29.7123 6.3092 
8 1 3 H 0.104 17.2446 30.6852 7.70618 
9 1 3 H 0.104 18.6779 32.0352 4.00584 
10 1 3 H 0.104 17.4255 30.6821 4.11814 
11 1 3 H 0.104 17.0678 32.379 4.60145 
12 1 3 H 0.104 19.3876 32.0854 7.49422 
13 1 3 H 0.104 19.6653 32.7242 5.92911 
14 1 3 H 0.104 18.3875 33.3915 6.7354 
15 1 3 H 0.104 20.0885 30.5244 5.26989 
16 1 3 H 0.104 19.4883 29.817 6.74789 
17 1 3 H 0.104 19.1056 29.2536 5.1034 
18 2 1 N 0.096 30.1325 17.7645 60.7267 
19 2 2 C -0.136 29.3111 18.6567 59.9956 
20 2 2 C -0.136 31.1936 17.1812 59.8674 
21 2 2 C -0.136 30.6911 18.4401 61.8918 
22 2 2 C -0.136 29.2967 16.6668 61.2674 
23 2 3 H 0.104 28.4749 19.0291 60.5873 
24 2 3 H 0.104 29.895 19.5243 59.6883 
25 2 3 H 0.104 28.7755 18.3464 59.0985 
26 2 3 H 0.104 30.7427 16.7377 58.9796 
27 2 3 H 0.104 31.9981 17.8453 59.5514 
28 2 3 H 0.104 31.7585 16.3072 60.1916 
29 2 3 H 0.104 31.1038 17.6812 62.5565 
30 2 3 H 0.104 31.5837 18.9895 61.5925 
31 2 3 H 0.104 30.0127 18.9789 62.5533 
32 2 3 H 0.104 29.925 15.9096 61.7366 
33 2 3 H 0.104 28.6805 17.0702 62.0709 
34 2 3 H 0.104 28.5701 16.2063 60.5981 
35 3 1 N 0.096 4.05904 42.5791 -32.2072 
36 3 2 C -0.136 4.09285 44.0297 -32.3317 
37 3 2 C -0.136 3.04487 42.1267 -33.1706 
38 3 2 C -0.136 5.28586 41.9272 -32.5245 
39 3 2 C -0.136 3.78664 42.2087 -30.8722 
40 3 3 H 0.104 4.46338 44.4615 -33.2614 
41 3 3 H 0.104 3.07431 44.4102 -32.255 
42 3 3 H 0.104 4.64219 44.5433 -31.5426 
43 3 3 H 0.104 3.3435 42.371 -34.1901 
44 3 3 H 0.104 3.00438 41.0388 -33.2258 
45 3 3 H 0.104 2.02539 42.4278 -32.9297 
46 3 3 H 0.104 5.17537 40.8434 -32.5575 
47 3 3 H 0.104 5.66864 42.184 -33.5123 
48 3 3 H 0.104 6.03994 42.1999 -31.7862 
49 3 3 H 0.104 3.78127 41.1363 -30.6771 
50 3 3 H 0.104 4.61041 42.5588 -30.2501 
51 3 3 H 0.104 2.79082 42.5374 -30.5749 
52 4 1 N 0.096 9.08596 29.5687 -19.3795 
53 4 2 C -0.136 10.0677 29.3764 -18.3446 
54 4 2 C -0.136 7.73456 29.501 -18.721 
55 4 2 C -0.136 9.34158 30.841 -20.0876 
56 4 2 C -0.136 9.16592 28.5044 -20.3758 
57 4 3 H 0.104 10.1584 28.3261 -18.0675 
58 4 3 H 0.104 11.0647 29.4359 -18.7811 
59 4 3 H 0.104 10.1194 30.1345 -17.5632 
60 4 3 H 0.104 7.01889 29.6323 -19.5325 
61 4 3 H 0.104 7.62774 28.5848 -18.1402 
62 4 3 H 0.104 7.62128 30.2799 -17.967 
63 4 3 H 0.104 8.48302 31.2578 -20.6142 
64 4 3 H 0.104 9.59781 31.6338 -19.3849 
65 4 3 H 0.104 10.2054 30.8994 -20.7498 
66 4 3 H 0.104 10.1564 28.4617 -20.8288 
67 4 3 H 0.104 9.00113 27.5729 -19.8343 
68 4 3 H 0.104 8.50875 28.5445 -21.2445 
69 5 1 N 0.096 34.7147 12.082 67.7372 
70 5 2 C -0.136 0.550794 10.7527 67.4358 
71 5 2 C -0.136 0.765807 13.2073 67.3147 
72 5 2 C -0.136 33.4362 12.052 67.0678 
73 5 2 C -0.136 34.5883 12.1741 69.1468 
74 5 3 H 0.104 1.40123 10.462 68.0525 
75 5 3 H 0.104 34.6874 10.0304 67.7983 
76 5 3 H 0.104 0.928193 10.5074 66.443 
77 5 3 H 0.104 0.253257 14.1599 67.4483 
78 5 3 H 0.104 1.81802 13.1224 67.5863 
79 5 3 H 0.104 0.830251 13.1191 66.2302 
80 5 3 H 0.104 33.3396 11.9265 65.9893 
81 5 3 H 0.104 32.7659 11.3378 67.5461 
82 5 3 H 0.104 33.0087 13.0467 67.1936 
83 5 3 H 0.104 0.672769 12.1594 69.6766 
84 5 3 H 0.104 34.0605 13.073 69.4651 
85 5 3 H 0.104 34.2156 11.2881 69.6609 
86 6 1 N 0.096 21.3379 12.4862 -65.7022 
87 6 2 C -0.136 22.5013 12.8803 -66.5335 
88 6 2 C -0.136 21.206 13.3004 -64.4362 
89 6 2 C -0.136 20.1984 12.5848 -66.5749 
90 6 2 C -0.136 21.6576 11.0494 -65.2242 
91 6 3 H 0.104 22.5911 12.2279 -67.4021 
92 6 3 H 0.104 22.3616 13.8912 -66.9166 
93 6 3 H 0.104 23.4522 12.7763 -66.011 
94 6 3 H 0.104 20.2602 13.2053 -63.9027 
95 6 3 H 0.104 22.0069 13.2025 -63.7034 
96 6 3 H 0.104 21.2344 14.3625 -64.6795 
97 6 3 H 0.104 20.0279 13.6375 -66.8005 
98 6 3 H 0.104 20.3209 12.1175 -67.552 
99 6 3 H 0.104 19.347 12.2064 -66.0092 
100 6 3 H 0.104 22.6388 11.0011 -64.7522 
101 6 3 H 0.104 20.9388 10.5716 -64.5585 
102 6 3 H 0.104 21.8123 10.3259 -66.0247 
103 7 1 N 0.096 25.6456 34.5599 69.6188 
104 7 2 C -0.136 27.0699 34.6721 69.3297 
105 7 2 C -0.136 25.0815 35.7797 69.2007 
106 7 2 C -0.136 25.0532 33.485 68.7633 
107 7 2 C -0.136 25.4087 34.1812 71.0414 
108 7 3 H 0.104 27.6393 33.7504 69.449 
109 7 3 H 0.104 27.0898 34.8618 68.2565 
110 7 3 H 0.104 27.531 35.5698 69.7416 
111 7 3 H 0.104 24.0144 35.7834 69.4232 
112 7 3 H 0.104 25.6353 36.506 69.7955 
113 7 3 H 0.104 25.166 35.9912 68.1347 
114 7 3 H 0.104 25.5206 32.5198 68.9588 
115 7 3 H 0.104 23.9797 33.3748 68.9168 
116 7 3 H 0.104 25.2166 33.7171 67.7109 
117 7 3 H 0.104 25.9018 33.2527 71.3292 
118 7 3 H 0.104 25.5823 34.9784 71.7642 
119 7 3 H 0.104 24.3621 33.9432 71.2316 
120 8 1 N 0.096 28.362 8.35256 36.6755 
121 8 2 C -0.136 27.5667 8.24448 37.936 
122 8 2 C -0.136 27.8067 7.27404 35.7266 
123 8 2 C -0.136 28.1568 9.64488 36.0655 
124 8 2 C -0.136 29.7734 7.9664 36.8486 
125 8 3 H 0.104 27.6514 7.30439 38.4811 
126 8 3 H 0.104 27.808 9.12094 38.5374 
127 8 3 H 0.104 26.4987 8.4068 37.791 
128 8 3 H 0.104 26.7306 7.4091 35.6179 
129 8 3 H 0.104 28.2142 7.42582 34.7271 
130 8 3 H 0.104 28.1157 6.26955 36.0158 
131 8 3 H 0.104 27.0855 9.84364 36.0379 
132 8 3 H 0.104 28.5839 10.3713 36.7569 
133 8 3 H 0.104 28.6764 9.735 35.1116 
134 8 3 H 0.104 30.4255 7.80899 35.9895 
135 8 3 H 0.104 30.244 8.7161 37.4846 
136 8 3 H 0.104 29.7736 7.05307 37.4435 
137 9 1 N 0.096 11.3763 13.9552 -8.64424 
138 9 2 C -0.136 11.9012 13.7205 -7.2599 
139 9 2 C -0.136 9.94145 14.1947 -8.43856 
140 9 2 C -0.136 12.056 15.1026 -9.20592 
141 9 2 C -0.136 11.688 12.7618 -9.55272 
142 9 3 H 0.104 11.2602 13.0152 -6.73101 
143 9 3 H 0.104 12.9144 13.3213 -7.21217 
144 9 3 H 0.104 11.8172 14.5865 -6.60331 
145 9 3 H 0.104 9.8337 15.0249 -7.74052 
146 9 3 H 0.104 9.38532 14.5169 -9.31891 
147 9 3 H 0.104 9.35277 13.3666 -8.04389 
148 9 3 H 0.104 11.9909 15.9355 -8.50576 
149 9 3 H 0.104 13.073 14.8419 -9.49872 
150 9 3 H 0.104 11.5025 15.3792 -10.1033 
151 9 3 H 0.104 11.0723 11.9098 -9.26449 
152 9 3 H 0.104 11.3061 12.7643 -10.5736 
153 9 3 H 0.104 12.7501 12.5166 -9.55723 
154 10 1 N 0.096 20.1507 19.7755 -29.7126 
155 10 2 C -0.136 18.8763 19.2864 -29.233 
156 10 2 C -0.136 21.1902 19.2316 -28.9103 
157 10 2 C -0.136 20.3172 19.3051 -31.0768 
158 10 2 C -0.136 20.1545 21.2313 -29.6453 
159 10 3 H 0.104 18.6827 18.2457 -29.4928 
160 10 3 H 0.104 18.7674 19.4208 -28.1569 
161 10 3 H 0.104 18.2013 19.9426 -29.7825 
162 10 3 H 0.104 22.1219 19.542 -29.3831 
163 10 3 H 0.104 21.2209 19.7015 -27.9272 
164 10 3 H 0.104 21.1844 18.1503 -28.7733 
165 10 3 H 0.104 21.34 19.5194 -31.3869 
166 10 3 H 0.104 20.109 18.2623 -31.3161 
167 10 3 H 0.104 19.6702 19.8693 -31.7485 
168 10 3 H 0.104 21.0863 21.7087 -29.9485 
169 10 3 H 0.104 19.4851 21.7243 -30.3503 
170 10 3 H 0.104 19.9731 21.5244 -28.6112 
171 11 1 N 0.096 28.3361 22.0211 34.7906 
172 11 2 C -0.136 27.5467 23.234 34.6869 
173 11 2 C -0.136 27.6616 21.0446 35.7072 
174 11 2 C -0.136 28.5823 21.3562 33.5095 
175 11 2 C -0.136 29.6857 22.4266 35.2386 
176 11 3 H 0.104 26.5286 22.9181 34.4595 
177 11 3 H 0.104 27.4569 23.7869 35.622 
178 11 3 H 0.104 27.9755 23.9304 33.9664 
179 11 3 H 0.104 28.0834 20.0407 35.6595 
180 11 3 H 0.104 27.8313 21.4861 36.6892 
181 11 3 H 0.104 26.6114 20.9299 35.4388 
182 11 3 H 0.104 29.2654 20.5112 33.5966 
183 11 3 H 0.104 27.7322 20.9833 32.9381 
184 11 3 H 0.104 28.9588 22.1166 32.8253 
185 11 3 H 0.104 30.2685 21.5469 35.5116 
186 11 3 H 0.104 30.3657 23.0281 34.6353 
187 11 3 H 0.104 29.5996 23.0938 36.0962 
188 12 1 N 0.096 25.2799 4.90413 28.346 
189 12 2 C -0.136 24.8503 3.71195 27.6264 
190 12 2 C -0.136 25.4921 5.97211 27.3268 
191 12 2 C -0.136 24.2591 5.39721 29.1699 
192 12 2 C -0.136 26.4957 4.66991 29.075 
193 12 3 H 0.104 25.4936 3.45891 26.7837 
194 12 3 H 0.104 24.857 2.95025 28.4061 
195 12 3 H 0.104 23.8571 3.82197 27.191 
196 12 3 H 0.104 24.7281 6.00218 26.5499 
197 12 3 H 0.104 25.381 6.92044 27.8526 
198 12 3 H 0.104 26.4323 5.94859 26.7759 
199 12 3 H 0.104 24.0305 4.67438 29.953 
200 12 3 H 0.104 24.6787 6.2813 29.6499 
201 12 3 H 0.104 23.2558 5.62137 28.8075 
202 12 3 H 0.104 26.8941 5.52213 29.6255 
203 12 3 H 0.104 26.326 3.9322 29.8592 
204 12 3 H 0.104 27.2834 4.18266 28.5003 
205 13 1 N 0.096 26.5889 44.76 35.2552 
206 13 2 C -0.136 26.1188 0.675201 34.1947 
207 13 2 C -0.136 25.7076 44.9409 36.4316 
208 13 2 C -0.136 26.5436 43.3792 34.7639 
209 13 2 C -0.136 27.963 0.2518 35.7053 
210 13 3 H 0.104 25.1828 0.400205 33.7085 
211 13 3 H 0.104 26.03 1.66838 34.6349 
212 13 3 H 0.104 26.7979 0.719521 33.3432 
213 13 3 H 0.104 25.5597 0.974598 36.744 
214 13 3 H 0.104 24.6775 44.6734 36.1961 
215 13 3 H 0.104 25.8643 44.3239 37.3164 
216 13 3 H 0.104 27.3289 43.2579 34.0178 
217 13 3 H 0.104 26.6935 42.6678 35.576 
218 13 3 H 0.104 25.6375 43.0891 34.232 
219 13 3 H 0.104 28.2263 44.4437 36.3877 
220 13 3 H 0.104 28.6262 0.238447 34.8403 
221 13 3 H 0.104 28.147 1.19943 36.2115 
222 14 1 N 0.096 7.5785 42.9652 18.3704 
223 14 2 C -0.136 8.95789 42.9783 18.9197 
224 14 2 C -0.136 6.74012 43.8482 19.1481 
225 14 2 C -0.136 7.72693 43.2371 16.9483 
226 14 2 C -0.136 7.03975 41.5881 18.3253 
227 14 3 H 0.104 9.3691 43.9779 19.0604 
228 14 3 H 0.104 9.02733 42.5826 19.9329 
229 14 3 H 0.104 9.64605 42.3902 18.3125 
230 14 3 H 0.104 6.79089 44.9155 18.9325 
231 14 3 H 0.104 5.70193 43.5162 19.1499 
232 14 3 H 0.104 6.97937 43.5879 20.1792 
233 14 3 H 0.104 7.81816 44.3004 16.7267 
234 14 3 H 0.104 8.65009 42.7984 16.5695 
235 14 3 H 0.104 6.81566 43.0402 16.3835 
236 14 3 H 0.104 7.79263 40.8691 18.0024 
237 14 3 H 0.104 6.76979 41.1975 19.3064 
238 14 3 H 0.104 6.14153 41.4745 17.7183 
239 15 1 N 0.096 23.2074 26.2494 61.3161 
240 15 2 C -0.136 23.3067 25.4312 60.1788 
241 15 2 C -0.136 24.397 27.0586 61.1475 
242 15 2 C -0.136 21.8201 26.7562 61.3129 
243 15 2 C -0.136 23.3735 25.5598 62.6027 
244 15 3 H 0.104 24.2625 24.9077 60.1579 
245 15 3 H 0.104 22.4683 24.7362 60.1322 
246 15 3 H 0.104 23.145 26.1086 59.3404 
247 15 3 H 0.104 24.5189 27.6627 62.0466 
248 15 3 H 0.104 25.2076 26.3307 61.1827 
249 15 3 H 0.104 24.4636 27.5681 60.1863 
250 15 3 H 0.104 21.448 27.2492 62.211 
251 15 3 H 0.104 21.5557 27.4558 60.5199 
252 15 3 H 0.104 21.1362 25.908 61.283 
253 15 3 H 0.104 24.2757 24.9551 62.6951 
254 15 3 H 0.104 23.4206 26.2574 63.4389 
255 15 3 H 0.104 22.5 24.9876 62.9153 
256 16 1 N 0.096 20.8713 25.9075 -31.4576 
257 16 2 C -0.136 21.6769 24.6757 -31.5877 
258 16 2 C -0.136 21.7274 27.0249 -31.0194 
259 16 2 C -0.136 20.2691 26.2033 -32.7982 
260 16 2 C -0.136 19.7399 25.7084 -30.5738 
261 16 3 H 0.104 21.858 24.3003 -30.5805 
262 16 3 H 0.104 21.066 23.9309 -32.0976 
263 16 3 H 0.104 22.5547 24.7956 -32.2226 
264 16 3 H 0.104 22.1283 27.1275 -30.011 
265 16 3 H 0.104 22.5892 26.9476 -31.6823 
266 16 3 H 0.104 21.2711 28.0147 -31.0195 
267 16 3 H 0.104 19.9806 27.2512 -32.7168 
268 16 3 H 0.104 21.0498 26.0824 -33.5492 
269 16 3 H 0.104 19.4075 25.5728 -33.0179 
270 16 3 H 0.104 18.9823 26.4751 -30.7361 
271 16 3 H 0.104 19.1936 24.7855 -30.7686 
272 16 3 H 0.104 20.0101 25.7671 -29.5195 
273 17 1 N 0.096 27.6529 18.8769 -8.91536 
274 17 2 C -0.136 27.6425 18.5789 -10.3918 
275 17 2 C -0.136 27.1082 17.6986 -8.23606 
276 17 2 C -0.136 29.0923 18.9463 -8.47903 
277 17 2 C -0.136 26.9112 20.123 -8.67757 
278 17 3 H 0.104 26.6264 18.4782 -10.7733 
279 17 3 H 0.104 28.0903 19.4508 -10.8685 
280 17 3 H 0.104 28.206 17.6642 -10.576 
281 17 3 H 0.104 27.8924 16.9447 -8.3047 
282 17 3 H 0.104 26.9628 17.9888 -7.19552 
283 17 3 H 0.104 26.1549 17.3534 -8.6362 
284 17 3 H 0.104 29.2459 18.8587 -7.40347 
285 17 3 H 0.104 29.8235 18.2446 -8.88032 
286 17 3 H 0.104 29.3367 19.958 -8.8027 
287 17 3 H 0.104 25.8721 19.97 -8.96887 
288 17 3 H 0.104 26.8691 20.434 -7.63373 
289 17 3 H 0.104 27.2611 20.9723 -9.26444 
290 18 1 N 0.096 32.0295 2.7823 37.3412 
291 18 2 C -0.136 31.4065 2.15508 38.4591 
292 18 2 C -0.136 31.4447 4.12548 37.1208 
293 18 2 C -0.136 33.5292 2.9417 37.5297 
294 18 2 C -0.136 31.9243 2.00028 36.0874 
295 18 3 H 0.104 31.7926 1.14306 38.5807 
296 18 3 H 0.104 31.5537 2.77998 39.3399 
297 18 3 H 0.104 30.3276 2.01942 38.3831 
298 18 3 H 0.104 31.6606 4.71895 38.0092 
299 18 3 H 0.104 31.7165 4.75995 36.2772 
300 18 3 H 0.104 30.3612 4.00738 37.1124 
301 18 3 H 0.104 34.0908 3.16833 36.6234 
302 18 3 H 0.104 33.86 3.69897 38.2405 
303 18 3 H 0.104 34.0157 2.00603 37.8054 
304 18 3 H 0.104 32.677 1.21996 36.2002 
305 18 3 H 0.104 30.9869 1.48815 35.8706 
306 18 3 H 0.104 32.2798 2.66738 35.3021 
307 19 1 N 0.096 8.24165 36.1096 -30.051 
308 19 2 C -0.136 9.01047 35.1201 -30.8535 
309 19 2 C -0.136 8.2416 37.3962 -30.7837 
310 19 2 C -0.136 6.87331 35.6004 -29.8647 
311 19 2 C -0.136 8.83682 36.2583 -28.7712 
312 19 3 H 0.104 10.0629 35.3849 -30.9556 
313 19 3 H 0.104 9.00229 34.1669 -30.3247 
314 19 3 H 0.104 8.58864 34.9695 -31.8472 
315 19 3 H 0.104 9.21082 37.7964 -31.0813 
316 19 3 H 0.104 7.81314 37.2671 -31.7776 
317 19 3 H 0.104 7.61199 38.1315 -30.2826 
318 19 3 H 0.104 6.33783 35.3424 -30.7784 
319 19 3 H 0.104 7.0012 34.685 -29.2869 
320 19 3 H 0.104 6.1946 36.2621 -29.3266 
321 19 3 H 0.104 8.74686 35.3805 -28.1313 
322 19 3 H 0.104 9.87716 36.575 -28.8451 
323 19 3 H 0.104 8.27037 37.088 -28.3482 
324 20 1 N 0.096 22.5227 11.9477 42.9885 
325 20 2 C -0.136 22.2815 11.4067 41.6417 
326 20 2 C -0.136 22.7583 10.8896 43.9274 
327 20 2 C -0.136 23.7474 12.8338 42.9565 
328 20 2 C -0.136 21.3671 12.725 43.2975 
329 20 3 H 0.104 23.0529 10.7879 41.1833 
330 20 3 H 0.104 21.3585 10.835 41.5448 
331 20 3 H 0.104 22.2898 12.1911 40.8849 
332 20 3 H 0.104 22.8227 11.3622 44.9075 
333 20 3 H 0.104 21.8729 10.2554 43.8828 
334 20 3 H 0.104 23.7268 10.4052 43.8035 
335 20 3 H 0.104 23.7534 13.4765 43.8368 
336 20 3 H 0.104 24.7468 12.4144 43.0725 
337 20 3 H 0.104 23.7533 13.4749 42.075 
338 20 3 H 0.104 20.3892 12.2542 43.3973 
339 20 3 H 0.104 21.4199 13.2468 44.2531 
340 20 3 H 0.104 21.2087 13.5418 42.5933 
341 21 1 N 0.096 20.5262 43.9698 -37.6414 
342 21 2 C -0.136 21.0301 44.0973 -36.2376 
343 21 2 C -0.136 19.3665 43.0697 -37.6273 
344 21 2 C -0.136 20.0541 0.328897 -38.002 
345 21 2 C -0.136 21.6203 43.5845 -38.4741 
346 21 3 H 0.104 21.5844 43.2785 -35.7787 
347 21 3 H 0.104 21.7544 44.9092 -36.172 
348 21 3 H 0.104 20.3042 44.5822 -35.5848 
349 21 3 H 0.104 18.6845 43.2816 -36.8038 
350 21 3 H 0.104 18.8805 43.1399 -38.6004 
351 21 3 H 0.104 19.6558 42.0359 -37.4386 
352 21 3 H 0.104 19.8017 0.275463 -39.061 
353 21 3 H 0.104 19.2187 0.677187 -37.3946 
354 21 3 H 0.104 20.8712 1.04138 -37.8894 
355 21 3 H 0.104 22.4292 44.315 -38.4902 
356 21 3 H 0.104 21.9733 42.6359 -38.0697 
357 21 3 H 0.104 21.2726 43.432 -39.4958 
358 22 1 N 0.096 2.94454 26.2727 49.4895 
359 22 2 C -0.136 2.04484 27.0274 48.5802 
360 22 2 C -0.136 1.99175 25.7042 50.4345 
361 22 2 C -0.136 3.83268 25.4927 48.6747 
362 22 2 C -0.136 3.76941 27.0527 50.3845 
363 22 3 H 0.104 1.39489 27.6819 49.161 
364 22 3 H 0.104 2.39273 27.4968 47.6601 
365 22 3 H 0.104 1.31389 26.328 48.1744 
366 22 3 H 0.104 2.44025 25.0374 51.1708 
367 22 3 H 0.104 1.21716 26.3014 50.9156 
368 22 3 H 0.104 1.43643 24.959 49.8649 
369 22 3 H 0.104 4.56597 24.8954 49.2166 
370 22 3 H 0.104 3.18922 24.7815 48.1567 
371 22 3 H 0.104 4.40935 25.9669 47.8805 
372 22 3 H 0.104 3.19302 27.5606 51.1578 
373 22 3 H 0.104 4.45704 26.3997 50.922 
374 22 3 H 0.104 4.41964 27.6482 49.7437 
375 23 1 N 0.096 13.27 14.171 1.73743 
376 23 2 C -0.136 12.1975 13.1906 1.49384 
377 23 2 C -0.136 12.6566 15.5116 1.59467 
378 23 2 C -0.136 13.9437 14.0596 3.03689 
379 23 2 C -0.136 14.3461 14.0691 0.752315 
380 23 3 H 0.104 11.5671 12.9298 2.34394 
381 23 3 H 0.104 11.4992 13.5642 0.74491 
382 23 3 H 0.104 12.5394 12.2734 1.01425 
383 23 3 H 0.104 12.1039 15.7718 0.691897 
384 23 3 H 0.104 12.1822 15.9505 2.47244 
385 23 3 H 0.104 13.5117 16.1674 1.75883 
386 23 3 H 0.104 14.9407 14.498 3.08012 
387 23 3 H 0.104 13.4656 14.5552 3.88179 
388 23 3 H 0.104 13.9383 13.0834 3.52173 
389 23 3 H 0.104 14.8879 13.1236 0.776663 
390 23 3 H 0.104 14.1323 13.959 -0.310804 
391 23 3 H 0.104 15.1524 14.7882 0.897572 
392 24 1 N 0.096 15.5944 11.6023 -33.3113 
393 24 2 C -0.136 16.116 12.4034 -32.1564 
394 24 2 C -0.136 14.8358 12.4308 -34.2234 
395 24 2 C -0.136 16.7789 10.9197 -33.9519 
396 24 2 C -0.136 14.6579 10.6019 -32.8025 
397 24 3 H 0.104 16.3334 11.716 -31.3389 
398 24 3 H 0.104 16.9955 12.925 -32.5341 
399 24 3 H 0.104 15.4084 13.1735 -31.8494 
400 24 3 H 0.104 14.3872 11.9341 -35.0837 
401 24 3 H 0.104 14.0796 12.9976 -33.6802 
402 24 3 H 0.104 15.4274 13.2716 -34.5854 
403 24 3 H 0.104 16.403 10.1895 -34.6685 
404 24 3 H 0.104 17.5909 11.5614 -34.2939 
405 24 3 H 0.104 17.2102 10.2541 -33.2042 
406 24 3 H 0.104 15.1691 10.1528 -31.9509 
407 24 3 H 0.104 13.7136 10.9853 -32.4159 
408 24 3 H 0.104 14.3907 9.91707 -33.6073 
409 25 1 N 0.096 1.78283 17.4152 -17.5855 
410 25 2 C -0.136 2.34992 18.7005 -17.0937 
411 25 2 C -0.136 0.70536 17.6978 -18.5862 
412 25 2 C -0.136 2.98767 16.7559 -18.1288 
413 25 2 C -0.136 1.1072 16.564 -16.5613 
414 25 3 H 0.104 2.79582 19.4181 -17.7824 
415 25 3 H 0.104 1.49257 19.2087 -16.6524 
416 25 3 H 0.104 3.04309 18.4971 -16.2774 
417 25 3 H 0.104 34.8406 18.3455 -18.1049 
418 25 3 H 0.104 1.10091 18.2756 -19.4216 
419 25 3 H 0.104 0.182859 16.8349 -18.9989 
420 25 3 H 0.104 2.58884 15.817 -18.5129 
421 25 3 H 0.104 3.53126 17.2009 -18.9622 
422 25 3 H 0.104 3.61477 16.446 -17.2929 
423 25 3 H 0.104 0.156761 16.929 -16.172 
424 25 3 H 0.104 0.677603 15.6926 -17.0555 
425 25 3 H 0.104 1.7426 16.1437 -15.7817 
426 26 1 N 0.096 32.6789 34.64 -67.6744 
427 26 2 C -0.136 33.781 35.5267 -67.487 
428 26 2 C -0.136 32.6015 34.0975 -69.004 
429 26 2 C -0.136 32.8793 33.5004 -66.8347 
430 26 2 C -0.136 31.421 35.2393 -67.4296 
431 26 3 H 0.104 34.8398 35.281 -67.5689 
432 26 3 H 0.104 33.8721 36.3178 -68.2312 
433 26 3 H 0.104 33.704 36.0995 -66.5629 
434 26 3 H 0.104 32.4677 34.8349 -69.7955 
435 26 3 H 0.104 33.5781 33.7722 -69.3624 
436 26 3 H 0.104 31.8057 33.3808 -69.2067 
437 26 3 H 0.104 32.1046 32.7366 -66.9023 
438 26 3 H 0.104 33.8173 33.0172 -67.108 
439 26 3 H 0.104 32.9252 33.7515 -65.775 
440 26 3 H 0.104 30.5912 34.5447 -67.5602 
441 26 3 H 0.104 31.1851 35.6969 -66.4689 
442 26 3 H 0.104 31.2493 36.0493 -68.1385 
443 27 1 N 0.096 22.3268 34.6343 -57.8101 
444 27 2 C -0.136 21.4748 35.6175 -58.4044 
445 27 2 C -0.136 21.602 34.0463 -56.6829 
446 27 2 C -0.136 22.645 33.5994 -58.766 
447 27 2 C -0.136 23.5967 35.2924 -57.3441 
448 27 3 H 0.104 22.0187 36.1544 -59.1816 
449 27 3 H 0.104 20.5582 35.3141 -58.9103 
450 27 3 H 0.104 21.1948 36.3779 -57.6754 
451 27 3 H 0.104 21.4889 34.7815 -55.8862 
452 27 3 H 0.104 20.6309 33.6632 -56.9965 
453 27 3 H 0.104 22.1266 33.223 -56.1982 
454 27 3 H 0.104 21.7417 33.0504 -59.0318 
455 27 3 H 0.104 22.96 33.8545 -59.7779 
456 27 3 H 0.104 23.3202 32.7872 -58.4967 
457 27 3 H 0.104 24.1277 34.5629 -56.7324 
458 27 3 H 0.104 24.3167 35.5714 -58.1134 
459 27 3 H 0.104 23.5403 36.1029 -56.6174 
460 28 1 N 0.096 33.5728 24.9972 5.42675 
461 28 2 C -0.136 32.171 25.1045 5.82455 
462 28 2 C -0.136 34.1916 26.2922 5.13054 
463 28 2 C -0.136 34.4383 24.4261 6.4438 
464 28 2 C -0.136 33.7003 24.1316 4.31762 
465 28 3 H 0.104 31.6897 24.1642 6.09343 
466 28 3 H 0.104 32.0136 25.8814 6.57276 
467 28 3 H 0.104 31.5613 25.5683 5.04916 
468 28 3 H 0.104 33.6723 26.8132 4.32618 
469 28 3 H 0.104 34.1353 27.093 5.86788 
470 28 3 H 0.104 0.359808 26.1104 4.84528 
471 28 3 H 0.104 34.5688 25.092 7.2968 
472 28 3 H 0.104 34.0144 23.4895 6.80606 
473 28 3 H 0.104 0.614287 24.241 6.19097 
474 28 3 H 0.104 33.3272 23.1612 4.64518 
475 28 3 H 0.104 33.0831 24.3206 3.4393 
476 28 3 H 0.104 34.7351 24.0367 3.9887 
477 29 1 N 0.096 32.3229 39.7565 2.18894 
478 29 2 C -0.136 31.3091 40.6809 1.65801 
479 29 2 C -0.136 33.2645 40.4649 3.03188 
480 29 2 C -0.136 31.6896 38.7155 3.07777 
481 29 2 C -0.136 32.8869 39.0335 1.05887 
482 29 3 H 0.104 30.4062 40.1783 1.31111 
483 29 3 H 0.104 30.8869 41.3122 2.43989 
484 29 3 H 0.104 31.646 41.4152 0.926274 
485 29 3 H 0.104 34.0189 39.7663 3.39356 
486 29 3 H 0.104 34.0046 41.0925 2.5353 
487 29 3 H 0.104 32.7558 40.9841 3.84415 
488 29 3 H 0.104 30.9306 38.0817 2.61915 
489 29 3 H 0.104 32.3641 37.9531 3.46733 
490 29 3 H 0.104 31.1293 39.2659 3.83355 
491 29 3 H 0.104 33.5212 38.2216 1.41467 
492 29 3 H 0.104 32.2965 38.3877 0.40891 
493 29 3 H 0.104 33.3916 39.7417 0.401672 
494 30 1 N 0.096 26.4632 40.084 -59.9807 
495 30 2 C -0.136 26.0588 38.7215 -60.3626 
496 30 2 C -0.136 25.469 41.0522 -60.2909 
497 30 2 C -0.136 26.7209 40.0457 -58.514 
498 30 2 C -0.136 27.7567 40.4155 -60.7079 
499 30 3 H 0.104 26.0175 38.5578 -61.4395 
500 30 3 H 0.104 26.7029 37.8763 -60.12 
501 30 3 H 0.104 25.0772 38.5016 -59.9427 
502 30 3 H 0.104 24.6256 41.083 -59.601 
503 30 3 H 0.104 25.7855 42.0926 -60.2165 
504 30 3 H 0.104 24.9956 41.0096 -61.2718 
505 30 3 H 0.104 27.3847 39.2282 -58.2325 
506 30 3 H 0.104 27.0901 40.9633 -58.0559 
507 30 3 H 0.104 25.7743 39.8432 -58.013 
508 30 3 H 0.104 28.2384 41.3022 -60.2959 
509 30 3 H 0.104 28.5237 39.6761 -60.4776 
510 30 3 H 0.104 27.7567 40.4097 -61.7979 
511 31 1 N 0.096 17.7134 34.595 63.8841 
512 31 2 C -0.136 18.1482 33.8681 65.1174 
513 31 2 C -0.136 17.2157 33.5959 62.924 
514 31 2 C -0.136 16.6141 35.5312 64.2711 
515 31 2 C -0.136 18.8684 35.2278 63.3239 
516 31 3 H 0.104 19.0058 33.2154 64.9544 
517 31 3 H 0.104 18.4663 34.4468 65.9846 
518 31 3 H 0.104 17.4362 33.1495 65.5234 
519 31 3 H 0.104 16.3726 33.0156 63.2988 
520 31 3 H 0.104 16.8557 34.1184 62.0377 
521 31 3 H 0.104 17.967 32.8662 62.6221 
522 31 3 H 0.104 15.9147 35.0174 64.9306 
523 31 3 H 0.104 17.07 36.3944 64.756 
524 31 3 H 0.104 16.109 35.8796 63.3702 
525 31 3 H 0.104 18.5619 35.6464 62.3653 
526 31 3 H 0.104 19.2469 36.0782 63.8912 
527 31 3 H 0.104 19.6421 34.4988 63.0832 
528 32 1 N 0.096 27.7562 2.61885 -25.2831 
529 32 2 C -0.136 29.2135 2.81135 -25.1802 
530 32 2 C -0.136 27.0597 2.88626 -23.9655 
531 32 2 C -0.136 27.1641 3.31609 -26.4476 
532 32 2 C -0.136 27.6695 1.20885 -25.6036 
533 32 3 H 0.104 29.4603 3.84673 -24.9453 
534 32 3 H 0.104 29.5906 2.26318 -24.3169 
535 32 3 H 0.104 29.7584 2.57866 -26.0951 
536 32 3 H 0.104 27.4918 2.45576 -23.0621 
537 32 3 H 0.104 26.9545 3.94388 -23.7236 
538 32 3 H 0.104 26.0056 2.61141 -24.0032 
539 32 3 H 0.104 26.1009 3.07622 -26.4417 
540 32 3 H 0.104 27.272 4.38611 -26.2701 
541 32 3 H 0.104 27.5888 2.983 -27.3946 
542 32 3 H 0.104 26.7272 0.701356 -25.3972 
543 32 3 H 0.104 27.8033 0.946448 -26.6531 
544 32 3 H 0.104 28.3615 0.606296 -25.0153 
545 33 1 N 0.096 6.26582 37.9332 -13.6766 
546 33 2 C -0.136 7.45419 38.1334 -12.8005 
547 33 2 C -0.136 5.19599 38.6045 -12.9717 
548 33 2 C -0.136 6.67518 38.6285 -14.9588 
549 33 2 C -0.136 5.87077 36.6167 -13.9951 
550 33 3 H 0.104 7.22669 37.7313 -11.8133 
551 33 3 H 0.104 8.25763 37.4817 -13.1437 
552 33 3 H 0.104 7.83665 39.1477 -12.686 
553 33 3 H 0.104 5.53797 39.6209 -12.7769 
554 33 3 H 0.104 4.343 38.7792 -13.6274 
555 33 3 H 0.104 4.91003 38.1144 -12.041 
556 33 3 H 0.104 5.86155 38.5358 -15.6782 
557 33 3 H 0.104 6.77963 39.7015 -14.7979 
558 33 3 H 0.104 7.60647 38.2888 -15.412 
559 33 3 H 0.104 6.71956 36.016 -14.3219 
560 33 3 H 0.104 5.72425 36.0796 -13.058 
561 33 3 H 0.104 5.10824 36.6498 -14.7733 
562 34 1 N 0.096 7.30808 43.0035 0.548212 
563 34 2 C -0.136 8.68107 43.0278 -0.0133689 
564 34 2 C -0.136 6.44299 43.9366 -0.218065 
565 34 2 C -0.136 6.90416 41.5865 0.311311 
566 34 2 C -0.136 7.35629 43.2397 2.00024 
567 34 3 H 0.104 8.88543 44.0944 -0.107271 
568 34 3 H 0.104 9.44337 42.6198 0.650323 
569 34 3 H 0.104 8.7317 42.5614 -0.997206 
570 34 3 H 0.104 6.60212 43.688 -1.26736 
571 34 3 H 0.104 5.3907 43.8554 0.0543356 
572 34 3 H 0.104 6.76967 44.9757 -0.178923 
573 34 3 H 0.104 5.91035 41.4398 0.734329 
574 34 3 H 0.104 6.74683 41.2382 -0.709504 
575 34 3 H 0.104 7.57046 40.8868 0.815901 
576 34 3 H 0.104 7.84646 44.1765 2.26505 
577 34 3 H 0.104 6.34045 43.4585 2.32929 
578 34 3 H 0.104 7.82869 42.5035 2.65059 
579 35 1 N 0.096 34.2449 26.1924 -55.4572 
580 35 2 C -0.136 33.8955 26.8826 -56.6476 
581 35 2 C -0.136 34.6633 27.0418 -54.3332 
582 35 2 C -0.136 33.0364 25.5512 -54.9407 
583 35 2 C -0.136 0.638303 25.5123 -55.7765 
584 35 3 H 0.104 34.7367 27.3838 -57.1264 
585 35 3 H 0.104 33.5488 26.1828 -57.408 
586 35 3 H 0.104 33.0308 27.501 -56.4067 
587 35 3 H 0.104 34.9442 26.4971 -53.4318 
588 35 3 H 0.104 0.693655 27.6329 -54.5109 
589 35 3 H 0.104 33.9232 27.7837 -54.0333 
590 35 3 H 0.104 33.2956 24.9739 -54.0533 
591 35 3 H 0.104 32.305 26.3305 -54.7263 
592 35 3 H 0.104 32.64 24.945 -55.7553 
593 35 3 H 0.104 1.53918 26.0831 -56.0016 
594 35 3 H 0.104 0.936035 25.0072 -54.8576 
595 35 3 H 0.104 0.400696 24.8224 -56.5863 
596 36 1 N 0.096 7.30378 12.1186 60.9115 
597 36 2 C -0.136 6.51426 11.0847 60.1427 
598 36 2 C -0.136 8.41123 12.6787 60.151 
599 36 2 C -0.136 6.42503 13.2452 61.0393 
600 36 2 C -0.136 7.70555 11.5088 62.1232 
601 36 3 H 0.104 7.12962 10.2698 59.7615 
602 36 3 H 0.104 5.67129 10.5602 60.5926 
603 36 3 H 0.104 6.04776 11.4091 59.2125 
604 36 3 H 0.104 8.07132 13.0384 59.1798 
605 36 3 H 0.104 8.80727 13.5674 60.6424 
606 36 3 H 0.104 9.21149 11.9421 60.0796 
607 36 3 H 0.104 5.56267 12.9047 61.6125 
608 36 3 H 0.104 6.91034 14.039 61.6072 
609 36 3 H 0.104 6.05022 13.701 60.1229 
610 36 3 H 0.104 6.84833 11.0668 62.631 
611 36 3 H 0.104 8.45298 10.7176 62.0638 
612 36 3 H 0.104 7.96659 12.2327 62.8951 
613 37 1 N 0.096 12.8023 40.8222 51.6581 
614 37 2 C -0.136 13.8475 40.0454 50.9736 
615 37 2 C -0.136 11.5465 40.1369 51.7856 
616 37 2 C -0.136 13.308 41.3579 52.8886 
617 37 2 C -0.136 12.4836 41.8993 50.7426 
618 37 3 H 0.104 13.4617 39.535 50.0911 
619 37 3 H 0.104 14.6701 40.7258 50.7535 
620 37 3 H 0.104 14.3293 39.338 51.6484 
621 37 3 H 0.104 11.0202 39.8572 50.8729 
622 37 3 H 0.104 11.6338 39.1557 52.2523 
623 37 3 H 0.104 10.8304 40.7453 52.338 
624 37 3 H 0.104 13.2857 40.5793 53.651 
625 37 3 H 0.104 14.2814 41.8373 52.7851 
626 37 3 H 0.104 12.6332 42.0706 53.3628 
627 37 3 H 0.104 11.6808 42.5546 51.0805 
628 37 3 H 0.104 13.3602 42.5413 50.6561 
629 37 3 H 0.104 12.1635 41.4995 49.7804 
630 38 1 N 0.096 19.753 20.9304 16.8756 
631 38 2 C -0.136 20.5067 21.038 15.6677 
632 38 2 C -0.136 19.7542 19.6057 17.3619 
633 38 2 C -0.136 20.2565 21.784 17.9449 
634 38 2 C -0.136 18.4326 21.4242 16.6155 
635 38 3 H 0.104 21.4738 20.5566 15.813 
636 38 3 H 0.104 19.9224 20.5339 14.8979 
637 38 3 H 0.104 20.7755 22.0408 15.3358 
638 38 3 H 0.104 19.2799 18.8704 16.7119 
639 38 3 H 0.104 20.7928 19.3054 17.5007 
640 38 3 H 0.104 19.1139 19.4012 18.22 
641 38 3 H 0.104 19.7111 21.5529 18.86 
642 38 3 H 0.104 21.3455 21.8182 17.9766 
643 38 3 H 0.104 20.129 22.8638 17.8682 
644 38 3 H 0.104 17.9364 20.9348 15.7774 
645 38 3 H 0.104 17.7707 21.3244 17.4758 
646 38 3 H 0.104 18.4466 22.4317 16.1996 
647 39 1 N 0.096 21.3198 17.8379 56.674 
648 39 2 C -0.136 20.4967 17.0279 55.7992 
649 39 2 C -0.136 20.4987 18.8742 57.3768 
650 39 2 C -0.136 21.9077 17.0818 57.7494 
651 39 2 C -0.136 22.3832 18.6029 55.9329 
652 39 3 H 0.104 20.0307 17.637 55.0246 
653 39 3 H 0.104 21.0876 16.3241 55.2129 
654 39 3 H 0.104 19.6681 16.4875 56.2569 
655 39 3 H 0.104 21.0953 19.4829 58.0563 
656 39 3 H 0.104 20.1046 19.5579 56.6248 
657 39 3 H 0.104 19.8095 18.478 58.1225 
658 39 3 H 0.104 22.5815 16.3403 57.3202 
659 39 3 H 0.104 22.4226 17.7634 58.4265 
660 39 3 H 0.104 21.1785 16.5743 58.3808 
661 39 3 H 0.104 22.0391 19.2275 55.1085 
662 39 3 H 0.104 23.0269 19.207 56.5723 
663 39 3 H 0.104 23.0674 17.8988 55.4594 
664 40 1 N 0.096 12.0385 34.2584 68.1469 
665 40 2 C -0.136 10.9538 33.5961 67.3976 
666 40 2 C -0.136 11.9211 33.773 69.5006 
667 40 2 C -0.136 13.3768 33.9702 67.6652 
668 40 2 C -0.136 11.7583 35.7001 68.0729 
669 40 3 H 0.104 10.0209 33.8505 67.9007 
670 40 3 H 0.104 10.9196 33.8735 66.3441 
671 40 3 H 0.104 11.2159 32.5429 67.4985 
672 40 3 H 0.104 10.9393 33.6971 69.9681 
673 40 3 H 0.104 12.1941 32.7201 69.5709 
674 40 3 H 0.104 12.6128 34.263 70.1858 
675 40 3 H 0.104 14.1206 34.526 68.2361 
676 40 3 H 0.104 13.6117 32.9132 67.54 
677 40 3 H 0.104 13.319 34.2715 66.6193 
678 40 3 H 0.104 11.8434 36.1461 67.082 
679 40 3 H 0.104 10.8179 35.9698 68.5535 
680 40 3 H 0.104 12.5825 36.2853 68.4809 
681 41 1 N 0.096 0.114963 39.739 -62.2211 
682 41 2 C -0.136 34.7178 41.2159 -61.9622 
683 41 2 C -0.136 1.33439 39.2397 -61.6335 
684 41 2 C -0.136 33.8695 39.0811 -61.6497 
685 41 2 C -0.136 0.0803847 39.5254 -63.6531 
686 41 3 H 0.104 0.750155 41.7058 -62.3331 
687 41 3 H 0.104 33.8588 41.5664 -62.5344 
688 41 3 H 0.104 34.5663 41.3603 -60.8925 
689 41 3 H 0.104 2.20548 39.6401 -62.1522 
690 41 3 H 0.104 1.30772 39.4328 -60.5611 
691 41 3 H 0.104 1.29083 38.1619 -61.7903 
692 41 3 H 0.104 33.963 39.1367 -60.5651 
693 41 3 H 0.104 32.9032 39.4174 -62.0257 
694 41 3 H 0.104 33.9594 38.0031 -61.7833 
695 41 3 H 0.104 0.904923 40.1081 -64.0638 
696 41 3 H 0.104 0.350298 38.4975 -63.8951 
697 41 3 H 0.104 33.9617 39.8525 -63.9811 
698 42 1 N 0.096 15.8794 40.2274 60.4616 
699 42 2 C -0.136 16.9836 40.7056 59.6512 
700 42 2 C -0.136 16.2259 38.8382 60.926 
701 42 2 C -0.136 15.5847 41.0449 61.5583 
702 42 2 C -0.136 14.7682 40.2163 59.4942 
703 42 3 H 0.104 17.9403 40.8281 60.159 
704 42 3 H 0.104 17.2033 39.9681 58.8792 
705 42 3 H 0.104 16.7829 41.6316 59.1124 
706 42 3 H 0.104 15.5684 38.2671 61.5815 
707 42 3 H 0.104 16.1883 38.1106 60.1153 