LAMMPS data file via mkdata

 9000 atoms
 7200 bonds
11100 angles
11400 dihedrals

15 atom types
 7 bond types
11 angle types
 7 dihedral types

0.0000000000000000e+00 3.4189999999999998e+01 xlo xhi
0.0000000000000000e+00 3.6850000000000001e+01 ylo yhi
-2.0000000000000000e+02 2.0000000000000000e+02 zlo zhi

Masses

1 30.974
2 14
3 15
4 16
5 12.01
6 32.07
7 14
8 16
9 19
10 12
11 12
12 12
13 16
14 16
15 1

Bond Coeffs # harmonic

1 210 1.836
2 310 1.538
3 320 1.416
4 744.02 1.57
5 470.84 1.818
6 883.6 1.323
7 1274.14 1.442

Angle Coeffs # harmonic

1 50 109.46
2 75 115.92
3 50 105.42
4 60 113.59
5 165.87 111.8
6 195.03 100.2
7 160.37 125.6
8 165.87 111.8
9 207.93 102.6
10 188.58 113.6
11 207.93 102.6

Dihedral Coeffs # opls

1 0 0 0.2708 0
2 -0.7763 0.2361 -0.1709 0
3 0.65 -0.25 0.67 0
4 0 0 0.316 0
5 7.8329 -2.4904 -0.7636 0
6 0 0 0.3468 0
7 0 0 -0.0036 0

Atoms

     1   1  1  0.19600  30.890   5.300 -19.550
     2   1  2  0.08720  31.080   3.490 -19.040
     3   1  3  0.06560  32.620   3.050 -19.080
     4   1  2  0.08720  31.440   5.560 -21.350
     5   1  3  0.06560  33.000   5.240 -21.500
     6   1  2  0.08720  31.920   6.400 -18.400
     7   1  3  0.06560  31.730   7.940 -18.800
     8   1  2  0.10880  29.060   5.790 -19.400
     9   1  2  0.14240  28.590   5.640 -17.870
    10   1  4 -0.30560  27.170   6.050 -17.760
    11   1  3  0.20000  26.750   5.990 -16.330
    12   2  1  0.19600  14.990  28.500   0.820
    13   2  2  0.08720  13.680  28.100   2.140
    14   2  3  0.06560  13.090  26.630   1.900
    15   2  2  0.08720  14.220  28.540  -0.910
    16   2  3  0.06560  13.670  27.080  -1.300
    17   2  2  0.08720  16.380  27.210   0.890
    18   2  3  0.06560  17.510  27.570  -0.190
    19   2  2  0.10880  15.730  30.210   1.190
    20   2  2  0.14240  16.440  30.190   2.630
    21   2  4 -0.30560  17.030  31.530   2.900
    22   2  3  0.20000  17.760  31.490   4.200
    23   3  1  0.19600  18.710  20.430  51.100
    24   3  2  0.08720  17.060  19.740  51.730
    25   3  3  0.06560  16.680  18.400  50.930
    26   3  2  0.08720  18.590  20.930  49.280
    27   3  3  0.06560  18.300  19.650  48.370
    28   3  2  0.08720  20.070  19.120  51.320
    29   3  3  0.06560  21.470  19.710  50.840
    30   3  2  0.10880  19.160  21.960  52.130
    31   3  2  0.14240  19.330  21.550  53.670
    32   3  4 -0.30560  19.710  22.750  54.460
    33   3  3  0.20000  19.940  22.360  55.870
    34   4  1  0.19600  31.960  15.810 -40.560
    35   4  2  0.08720  30.400  15.420 -41.560
    36   4  3  0.06560  29.450  14.410 -40.760
    37   4  2  0.08720  33.000  14.250 -40.300
    38   4  3  0.06560  32.190  13.180 -39.410
    39   4  2  0.08720  31.470  16.550 -38.890
    40   4  3  0.06560  32.790  16.920 -38.050
    41   4  2  0.10880  33.000  17.070 -41.520
    42   4  2  0.14240  32.170  18.430 -41.700
    43   4  4 -0.30560  33.000  19.420 -42.430
    44   4  3  0.20000  32.250  20.710 -42.540
    45   5  1  0.19600  22.420  31.840  36.260
    46   5  2  0.08720  23.500  33.250  35.590
    47   5  3  0.06560  22.820  33.890  34.280
    48   5  2  0.08720  22.290  30.430  35.010
    49   5  3  0.06560  21.540  30.930  33.680
    50   5  2  0.08720  20.690  32.510  36.660
    51   5  3  0.06560  19.790  31.330  37.270
    52   5  2  0.10880  23.210  31.180  37.850
    53   5  2  0.14240  23.270  32.340  38.950
    54   5  4 -0.30560  23.870  31.800  40.200
    55   5  3  0.20000  23.860  32.860  41.250
    56   6  1  0.19600  28.130   1.880  25.010
    57   6  2  0.08720  26.470   1.000  25.260
    58   6  3  0.06560  26.030   1.060  26.800
    59   6  2  0.08720  29.510   1.000  25.960
    60   6  3  0.06560  29.240   1.070  27.540
    61   6  2  0.08720  27.990   3.680  25.600
    62   6  3  0.06560  29.380   4.440  25.350
    63   6  2  0.10880  28.560   1.870  23.160
    64   6  2  0.14240  27.430   2.660  22.340
    65   6  4 -0.30560  27.790   2.660  20.900
    66   6  3  0.20000  26.780   3.460  20.150
    67   7  1  0.19600  30.460  10.080 -66.150
    68   7  2  0.08720  28.960   9.060 -66.700
    69   7  3  0.06560  28.280   9.720 -67.990
    70   7  2  0.08720  29.930  11.830 -65.610
    71   7  3  0.06560  29.320  12.620 -66.860
    72   7  2  0.08720  31.710  10.200 -67.570
    73   7  3  0.06560  33.000  11.020 -67.100
    74   7  2  0.10880  31.280   9.220 -64.670
    75   7  2  0.14240  31.790   7.770 -65.110
    76   7  4 -0.30560  32.460   7.110 -63.960
    77   7  3  0.20000  33.000   5.790 -64.390
    78   8  1  0.19600  31.210  27.450 -42.690
    79   8  2  0.08720  29.620  28.460 -42.390
    80   8  3  0.06560  29.840  29.980 -42.840
    81   8  2  0.08720  32.630  28.110 -41.610
    82   8  3  0.06560  33.000  29.610 -42.040
    83   8  2  0.08720  31.690  27.550 -44.520
    84   8  3  0.06560  33.000  26.660 -44.780
    85   8  2  0.10880  30.880  25.650 -42.220
    86   8  2  0.14240  29.720  25.050 -43.160
    87   8  4 -0.30560  29.490  23.620 -42.800
    88   8  3  0.20000  28.470  23.050 -43.720
    89   9  1  0.19600  13.410  33.110  -0.100
    90   9  2  0.08720  13.420  31.310  -0.680
    91   9  3  0.06560  13.290  30.320   0.580
    92   9  2  0.08720  14.920  33.480   0.990
    93   9  3  0.06560  14.850  32.620   2.330
    94   9  2  0.08720  11.810  33.460   0.860
    95   9  3  0.06560  11.780  35.000   1.310
    96   9  2  0.10880  13.470  34.240  -1.630
    97   9  2  0.14240  12.180  33.990  -2.540
    98   9  4 -0.30560  12.220  34.900  -3.710
    99   9  3  0.20000  10.990  34.720  -4.520
   100  10  1  0.19600   4.410  17.440  55.970
   101  10  2  0.08720   6.260  17.220  55.590
   102  10  3  0.06560   6.460  16.290  54.310
   103  10  2  0.08720   3.610  15.780  56.410
   104  10  3  0.06560   3.670  14.790  55.160
   105  10  2  0.08720   3.540  18.190  54.460
   106  10  3  0.06560   1.990  18.420  54.780
   107  10  2  0.10880   4.220  18.620  57.440
   108  10  2  0.14240   4.830  20.050  57.070
   109  10  4 -0.30560   4.650  20.980  58.220
   110  10  3  0.20000   5.160  22.320  57.860
   111  11  1  0.19600  16.140  14.910 -21.640
   112  11  2  0.08720  17.400  15.850 -22.690
   113  11  3  0.06560  18.740  14.970 -22.870
   114  11  2  0.08720  16.800  14.620 -19.880
   115  11  3  0.06560  18.090  13.680 -19.930
   116  11  2  0.08720  15.740  13.240 -22.460
   117  11  3  0.06560  14.640  12.470 -21.590
   118  11  2  0.10880  14.550  15.940 -21.530
   119  11  2  0.14240  13.930  16.140 -22.990
   120  11  4 -0.30560  12.680  16.930 -22.890
   121  11  3  0.20000  12.070  17.060 -24.240
   122  12  1  0.19600   7.600  30.740  43.230
   123  12  2  0.08720   8.110  30.390  41.430
   124  12  3  0.06560   9.700  30.260  41.320
   125  12  2  0.08720   8.290  32.410  43.810
   126  12  3  0.06560   9.890  32.370  43.830
   127  12  2  0.08720   8.240  29.350  44.350
   128  12  3  0.06560   7.770  29.620  45.860
   129  12  2  0.10880   5.710  30.800  43.320
   130  12  2  0.14240   5.100  29.380  42.890
   131  12  4 -0.30560   3.620  29.420  43.000
   132  12  3  0.20000   3.060  28.090  42.670
   133  13  1  0.19600  25.750   5.540 -40.620
   134  13  2  0.08720  27.510   5.470 -41.330
   135  13  3  0.06560  27.680   4.190 -42.280
   136  13  2  0.08720  25.420   4.040 -39.510
   137  13  3  0.06560  25.470   2.690 -40.370
   138  13  2  0.08720  24.500   5.580 -42.040
   139  13  3  0.06560  23.010   5.680 -41.440
   140  13  2  0.10880  25.570   7.110 -39.580
   141  13  2  0.14240  25.790   8.400 -40.510
   142  13  4 -0.30560  25.620   9.630 -39.690
   143  13  3  0.20000  25.750  10.820 -40.570
   144  14  1  0.19600  18.970  24.740  12.420
   145  14  2  0.08720  17.540  25.670  11.600
   146  14  3  0.06560  16.140  25.220  12.240
   147  14  2  0.08720  18.840  22.870  12.100
   148  14  3  0.06560  17.510  22.290  12.780
   149  14  2  0.08720  18.950  25.070  14.290
   150  14  3  0.06560  20.190  24.320  14.990
   151  14  2  0.10880  20.610  25.360  11.700
   152  14  2  0.14240  20.780  26.920  12.010
   153  14  4 -0.30560  22.070  27.400  11.460
   154  14  3  0.20000  22.260  28.830  11.810
   155  15  1  0.19600  21.020  28.850   0.330
   156  15  2  0.08720  19.250  29.040   0.990
   157  15  3  0.06560  19.220  30.070   2.220
   158  15  2  0.08720  22.160  28.110   1.650
   159  15  3  0.06560  22.290  29.110   2.900
   160  15  2  0.08720  21.680  30.550  -0.210
   161  15  3  0.06560  23.150  30.390  -0.810
   162  15  2  0.10880  20.990  27.690  -1.170
   163  15  2  0.14240  20.080  28.320  -2.320
   164  15  4 -0.30560  20.090  27.420  -3.500
   165  15  3  0.20000  19.300  28.040  -4.600
   166  16  1  0.19600   7.860  31.630 -53.050
   167  16  2  0.08720   9.670  32.010 -52.670
   168  16  3  0.06560   9.790  33.320 -51.750
   169  16  2  0.08720   7.070  33.030 -54.050
   170  16  3  0.06560   7.040  34.390 -53.190
   171  16  2  0.08720   6.900  31.390 -51.420
   172  16  3  0.06560   5.380  31.030 -51.740
   173  16  2  0.10880   7.760  30.030 -54.060
   174  16  2  0.14240   8.370  28.820 -53.210
   175  16  4 -0.30560   8.270  27.570 -54.000
   176  16  3  0.20000   8.760  26.420 -53.190
   177  17  1  0.19600   9.760   8.280 -13.230
   178  17  2  0.08720  10.200   9.930 -14.060
   179  17  3  0.06560  10.580   9.700 -15.600
   180  17  2  0.08720  11.260   7.110 -13.220
   181  17  3  0.06560  11.680   6.730 -14.720
   182  17  2  0.08720   8.320   7.470 -14.160
   183  17  3  0.06560   7.920   6.100 -13.440
   184  17  2  0.10880   9.240   8.610 -11.440
   185  17  2  0.14240   7.940   9.550 -11.420
   186  17  4 -0.30560   7.520   9.780 -10.010
   187  17  3  0.20000   6.280  10.590 -10.000
   188  18  1  0.19600   3.370  20.550 -49.550
   189  18  2  0.08720   5.070  21.200 -49.020
   190  18  3  0.06560   5.970  21.530 -50.310
   191  18  2  0.08720   3.540  18.910 -50.490
   192  18  3  0.06560   4.350  19.130 -51.860
   193  18  2  0.08720   2.520  21.840 -50.660
   194  18  3  0.06560   1.060  21.310 -51.070
   195  18  2  0.10880   2.320  20.260 -48.010
   196  18  2  0.14240   2.110  21.640 -47.230
   197  18  4 -0.30560   1.260  21.410 -46.030
   198  18  3  0.20000   1.000  22.710 -45.350
   199  19  1  0.19600   5.130  33.400 -23.630
   200  19  2  0.08720   5.780  34.800 -24.740
   201  19  3  0.06560   7.350  35.000 -24.530
   202  19  2  0.08720   5.350  33.840 -21.790
   203  19  3  0.06560   6.910  33.980 -21.440
   204  19  2  0.08720   6.060  31.800 -24.020
   205  19  3  0.06560   5.490  30.610 -23.110
   206  19  2  0.10880   3.290  33.150 -23.970
   207  19  2  0.14240   3.080  32.720 -25.500
   208  19  4 -0.30560   1.630  32.490 -25.750
   209  19  3  0.20000   1.440  32.020 -27.150
   210  20  1  0.19600   9.780  23.180 -21.660
   211  20  2  0.08720   8.260  22.040 -21.640
   212  20  3  0.06560   8.290  21.050 -22.900
   213  20  2  0.08720   9.760  24.300 -23.190
   214  20  3  0.06560   9.880  23.420 -24.530
   215  20  2  0.08720  11.360  22.130 -21.650
   216  20  3  0.06560  12.640  23.090 -21.630
   217  20  2  0.10880   9.750  24.270 -20.110
   218  20  2  0.14240   9.830  23.350 -18.810
   219  20  4 -0.30560   9.830  24.210 -17.600
   220  20  3  0.20000   9.970  23.360 -16.380
   221  21  1  0.19600   7.270   5.720  10.620
   222  21  2  0.08720   5.760   4.590  10.800
   223  21  3  0.06560   4.540   5.130   9.900
   224  21  2  0.08720   6.890   7.460  11.260
   225  21  3  0.06560   5.750   8.150  10.380
   226  21  2  0.08720   7.780   5.810   8.790
   227  21  3  0.06560   9.080   6.730   8.640
   228  21  2  0.10880   8.700   5.000  11.630
   229  21  2  0.14240   9.080   3.550  11.060
   230  21  4 -0.30560  10.220   3.000  11.840
   231  21  3  0.20000  10.620   1.690  11.270
   232  22  1  0.19600  22.550   6.710 -27.000
   233  22  2  0.08720  24.120   5.910 -26.310
   234  22  3  0.06560  24.700   4.830 -27.340
   235  22  2  0.08720  21.170   5.430 -27.220
   236  22  3  0.06560  21.600   4.340 -28.320
   237  22  2  0.08720  22.940   7.530 -28.670
   238  22  3  0.06560  21.620   8.250 -29.240
   239  22  2  0.10880  21.950   8.040 -25.790
   240  22  2  0.14240  23.070   9.170 -25.630
   241  22  4 -0.30560  22.580  10.220 -24.700
   242  22  3  0.20000  23.590  11.310 -24.610
   243  23  1  0.19600  15.410  19.550  24.090
   244  23  2  0.08720  14.770  20.970  23.010
   245  23  3  0.06560  13.270  20.660  22.520
   246  23  2  0.08720  15.510  17.930  23.100
   247  23  3  0.06560  14.050  17.470  22.640
   248  23  2  0.08720  14.260  19.320  25.580
   249  23  3  0.06560  14.820  18.150  26.530
   250  23  2  0.10880  17.150  19.990  24.710
   251  23  2  0.14240  17.080  21.320  25.600
   252  23  4 -0.30560  18.440  21.640  26.110
   253  23  3  0.20000  18.370  22.830  27.000
   254  24  1  0.19600  13.500  28.400  36.480
   255  24  2  0.08720  15.020  27.460  37.100
   256  24  3  0.06560  15.970  28.440  37.950
   257  24  2  0.08720  14.000  29.790  35.290
   258  24  3  0.06560  14.880  30.890  36.050
   259  24  2  0.08720  12.550  29.130  37.950
   260  24  3  0.06560  11.240  29.890  37.430
   261  24  2  0.10880  12.370  27.190  35.550
   262  24  2  0.14240  11.880  26.040  36.550
   263  24  4 -0.30560  10.970  25.110  35.830
   264  24  3  0.20000  10.460  24.080  36.770
   265  25  1  0.19600   5.860  19.990 -37.480
   266  25  2  0.08720   6.310  21.790 -37.110
   267  25  3  0.06560   5.310  22.790 -37.870
   268  25  2  0.08720   6.080  19.610 -39.330
   269  25  3  0.06560   5.060  20.480 -40.200
   270  25  2  0.08720   4.070  19.660 -36.960
   271  25  3  0.06560   3.700  18.120 -37.240
   272  25  2  0.10880   7.020  18.850 -36.500
   273  25  2  0.14240   6.810  19.110 -34.930
   274  25  4 -0.30560   7.700  18.200 -34.160
   275  25  3  0.20000   7.450  18.380 -32.710
   276  26  1  0.19600   3.000  30.150   9.760
   277  26  2  0.08720   1.310  29.340   9.430
   278  26  3  0.06560   1.180  27.980  10.260
   279  26  2  0.08720   4.410  29.050   9.150
   280  26  3  0.06560   4.440  27.680   9.970
   281  26  2  0.08720   3.190  30.480  11.610
   282  26  3  0.06560   4.590  31.210  11.890
   283  26  2  0.10880   3.070  31.800   8.830
   284  26  2  0.14240   1.920  32.780   9.370
   285  26  4 -0.30560   2.010  34.080   8.650
   286  26  3  0.20000   0.990  35.010   9.200
   287  27  1  0.19600   7.330  32.220 -16.610
   288  27  2  0.08720   5.510  31.830 -16.270
   289  27  3  0.06560   4.580  33.070 -16.660
   290  27  2  0.08720   7.920  33.660 -15.510
   291  27  3  0.06560   7.130  35.000 -15.880
   292  27  2  0.08720   7.560  32.670 -18.430
   293  27  3  0.06560   9.110  32.970 -18.730
   294  27  2  0.10880   8.380  30.690 -16.210
   295  27  2  0.14240   7.950  29.480 -17.160
   296  27  4 -0.30560   8.790  28.290 -16.860
   297  27  3  0.20000   8.430  27.190 -17.790
   298  28  1  0.19600   7.080  13.180  -7.100
   299  28  2  0.08720   5.880  11.720  -7.090
   300  28  3  0.06560   4.930  11.780  -5.800
   301  28  2  0.08720   8.250  13.110  -5.610
   302  28  3  0.06560   7.430  13.260  -4.250
   303  28  2  0.08720   6.110  14.810  -7.070
   304  28  3  0.06560   7.120  16.050  -7.120
   305  28  2  0.10880   8.120  13.120  -8.690
   306  28  2  0.14240   7.160  13.240  -9.970
   307  28  4 -0.30560   7.980  13.210 -11.210
   308  28  3  0.20000   7.100  13.400 -12.390
   309  29  1  0.19600  23.060  10.050  26.850
   310  29  2  0.08720  24.550  11.070  26.270
   311  29  3  0.06560  25.530  10.160  25.380
   312  29  2  0.08720  23.600   8.630  27.980
   313  29  3  0.06560  24.520   7.600  27.170
   314  29  2  0.08720  22.140   9.360  25.340
   315  29  3  0.06560  20.850   8.530  25.820
   316  29  2  0.10880  21.890  11.180  27.820
   317  29  2  0.14240  21.360  12.360  26.870
   318  29  4 -0.30560  20.420  13.230  27.630
   319  29  3  0.20000  19.880  14.270  26.730
   320  30  1  0.19600  13.450  32.930 -36.860
   321  30  2  0.08720  14.740  31.560 -36.590
   322  30  3  0.06560  16.040  32.150 -35.870
   323  30  2  0.08720  14.120  34.260 -38.030
   324  30  3  0.06560  15.380  35.000 -37.370
   325  30  2  0.08720  12.990  33.700 -35.190
   326  30  3  0.06560  11.870  34.830 -35.410
   327  30  2  0.10880  11.900  32.160 -37.640
   328  30  2  0.14240  11.280  31.070 -36.640
   329  30  4 -0.30560  10.050  30.500 -37.250
   330  30  3  0.20000   9.430  29.540 -36.290
   331  31  1  0.19600  28.300  19.850 -49.100
   332  31  2  0.08720  28.760  18.130 -49.740
   333  31  3  0.06560  27.470  17.370 -50.300
   334  31  2  0.08720  27.100  19.730 -47.630
   335  31  3  0.06560  25.720  19.070 -48.100
   336  31  2  0.08720  27.500  20.850 -50.500
   337  31  3  0.06560  27.150  22.330 -49.980
   338  31  2  0.10880  29.870  20.740 -48.530
   339  31  2  0.14240  30.880  20.910 -49.760
   340  31  4 -0.30560  32.100  21.630 -49.310
   341  31  3  0.20000  33.000  21.850 -50.470
   342  32  1  0.19600   8.420  17.930   2.750
   343  32  2  0.08720   7.020  18.200   1.500
   344  32  3  0.06560   6.470  19.700   1.580
   345  32  2  0.08720   7.790  18.150   4.530
   346  32  3  0.06560   7.300  19.660   4.760
   347  32  2  0.08720   9.820  19.170   2.410
   348  32  3  0.06560  11.030  18.920   3.430
   349  32  2  0.10880   9.090  16.170   2.560
   350  32  2  0.14240   9.680  15.980   1.080
   351  32  4 -0.30560  10.230  14.600   0.940
   352  32  3  0.20000  10.840  14.440  -0.400
   353  33  1  0.19600  14.910  15.600 -12.470
   354  33  2  0.08720  13.070  15.870 -12.840
   355  33  3  0.06560  12.730  15.440 -14.340
   356  33  2  0.08720  15.990  16.710 -13.570
   357  33  3  0.06560  15.810  16.310 -15.110
   358  33  2  0.08720  15.360  13.780 -12.750
   359  33  3  0.06560  16.900  13.540 -12.400
   360  33  2  0.10880  15.240  16.050 -10.650
   361  33  2  0.14240  14.390  15.080  -9.700
   362  33  4 -0.30560  14.680  15.420  -8.280
   363  33  3  0.20000  13.940  14.480  -7.390
   364  34  1  0.19600   2.720   2.700  29.740
   365  34  2  0.08720   1.010   2.130  29.170
   366  34  3  0.06560   1.140   1.000  28.040
   367  34  2  0.08720   3.680   3.510  28.310
   368  34  3  0.06560   3.950   2.440  27.160
   369  34  2  0.08720   3.690   1.220  30.410
   370  34  3  0.06560   5.130   1.700  30.930
   371  34  2  0.10880   2.520   3.980  31.130
   372  34  2  0.14240   1.770   3.300  32.370
   373  34  4 -0.30560   1.630   4.300  33.470
   374  34  3  0.20000   1.000   3.660  34.650
   375  35  1  0.19600  30.990  18.830  20.380
   376  35  2  0.08720  30.290  20.300  19.400
   377  35  3  0.06560  29.030  19.840  18.530
   378  35  2  0.08720  31.640  17.490  19.210
   379  35  3  0.06560  30.440  16.880  18.340
   380  35  2  0.08720  29.630  18.110  21.490
   381  35  3  0.06560  30.220  16.890  22.350
   382  35  2  0.10880  32.420  19.430  21.470
   383  35  2  0.14240  31.880  20.530  22.510
   384  35  4 -0.30560  33.000  20.980  23.370
   385  35  3  0.20000  32.490  21.930  24.390
   386  36  1  0.19600  17.270  32.070  24.580
   387  36  2  0.08720  16.230  33.520  25.220
   388  36  3  0.06560  15.050  32.990  26.160
   389  36  2  0.08720  16.230  30.910  23.500
   390  36  3  0.06560  15.060  30.240  24.370
   391  36  2  0.08720  17.980  31.110  26.060
   392  36  3  0.06560  18.900  29.900  25.530
   393  36  2  0.10880  18.700  32.750  23.540
   394  36  2  0.14240  19.630  33.680  24.450
   395  36  4 -0.30560  20.770  34.190  23.630
   396  36  3  0.20000  21.670  35.000  24.490
   397  37  1  0.19600  18.480  33.520 -24.650
   398  37  2  0.08720  16.640  33.610 -24.200
   399  37  3  0.06560  16.310  35.000 -23.470
   400  37  2  0.08720  19.560  33.540 -23.090
   401  37  3  0.06560  19.390  34.930 -22.310
   402  37  2  0.08720  18.930  34.990 -25.770
   403  37  3  0.06560  20.470  34.890 -26.180
   404  37  2  0.10880  18.800  31.910 -25.590
   405  37  2  0.14240  17.940  31.890 -26.940
   406  37  4 -0.30560  18.220  30.630 -27.690
   407  37  3  0.20000  17.480  30.650 -28.980
   408  38  1  0.19600  19.930  28.800 -16.770
   409  38  2  0.08720  19.200  27.200 -16.060
   410  38  3  0.06560  20.370  26.240 -15.520
   411  38  2  0.08720  21.020  28.440 -18.270
   412  38  3  0.06560  22.290  27.560 -17.840
   413  38  2  0.08720  20.950  29.680 -15.430
   414  38  3  0.06560  21.530  31.050 -16.010
   415  38  2  0.10880  18.510  29.930 -17.310
   416  38  2  0.14240  17.600  30.310 -16.040
   417  38  4 -0.30560  16.510  31.220 -16.470
   418  38  3  0.20000  15.710  31.620 -15.280
   419  39  1  0.19600  17.100   4.640   6.380
   420  39  2  0.08720  16.290   3.990   4.790
   421  39  3  0.06560  17.280   4.190   3.540
   422  39  2  0.08720  17.400   6.510   6.260
   423  39  3  0.06560  18.450   6.840   5.100
   424  39  2  0.08720  18.740   3.750   6.670
   425  39  3  0.06560  19.410   4.270   8.040
   426  39  2  0.10880  15.940   4.310   7.840
   427  39  2  0.14240  15.720   2.730   8.000
   428  39  4 -0.30560  14.830   2.470   9.160
   429  39  3  0.20000  14.680   1.000   9.350
   430  40  1  0.19600  24.020  16.040  14.430
   431  40  2  0.08720  24.460  17.750  15.130
   432  40  3  0.06560  23.220  18.350  15.960
   433  40  2  0.08720  22.590  16.170  13.190
   434  40  3  0.06560  21.260  16.670  13.930
   435  40  2  0.08720  23.540  14.880  15.850
   436  40  3  0.06560  23.210  13.420  15.270
   437  40  2  0.10880  25.540  15.340  13.540
   438  40  2  0.14240  26.740  15.160  14.580
   439  40  4 -0.30560  27.920  14.590  13.880
   440  40  3  0.20000  29.020  14.360  14.860
   441  41  1  0.19600  26.270  29.180 -46.420
   442  41  2  0.08720  27.840  29.150 -47.480
   443  41  3  0.06560  27.480  28.840 -49.010
   444  41  2  0.08720  25.420  27.490 -46.410
   445  41  3  0.06560  24.920  27.110 -47.880
   446  41  2  0.08720  25.080  30.490 -47.100
   447  41  3  0.06560  23.770  30.560 -46.180
   448  41  2  0.10880  26.740  29.640 -44.640
   449  41  2  0.14240  27.400  31.090 -44.610
   450  41  4 -0.30560  27.750  31.450 -43.210
   451  41  3  0.20000  28.290  32.830 -43.170
   452  42  1  0.19600  13.790  11.420 -41.280
   453  42  2  0.08720  14.850  10.140 -42.210
   454  42  3  0.06560  13.950   9.340 -43.260
   455  42  2  0.08720  12.440  10.560 -40.260
   456  42  3  0.06560  11.420   9.790 -41.220
   457  42  2  0.08720  13.000  12.610 -42.530
   458  42  3  0.06560  12.140  13.710 -41.740
   459  42  2  0.10880  14.910  12.400 -40.110
   460  42  2  0.14240  16.020  13.180 -40.950
   461  42  4 -0.30560  16.880  13.970 -40.030
   462  42  3  0.20000  17.860  14.760 -40.820
   463  43  1  0.19600  11.210  33.960   5.310
   464  43  2  0.08720  10.470  32.400   6.100
   465  43  3  0.06560   9.820  31.450   4.990
   466  43  2  0.08720   9.860  35.000   4.480
   467  43  3  0.06560   9.190  34.180   3.270
   468  43  2  0.08720  12.510  33.450   4.020
   469  43  3  0.06560  13.170  34.770   3.380
   470  43  2  0.10880  12.040  35.000   6.650
   471  43  2  0.14240  13.230  34.170   7.330
   472  43  4 -0.30560  13.890  35.000   8.370
   473  43  3  0.20000  15.040  34.260   8.940
   474  44  1  0.19600  17.790  29.510  13.890
   475  44  2  0.08720  16.270  30.010  14.920
   476  44  3  0.06560  15.200  30.770  14.000
   477  44  2  0.08720  18.680  31.050  13.230
   478  44  3  0.06560  17.740  31.850  12.220
   479  44  2  0.08720  17.250  28.410  12.450
   480  44  3  0.06560  18.540  27.960  11.600
   481  44  2  0.10880  18.990  28.550  15.000
   482  44  2  0.14240  18.280  27.210  15.520
   483  44  4 -0.30560  19.230  26.440  16.360
   484  44  3  0.20000  18.600  25.170  16.790
   485  45  1  0.19600  25.220  21.660 -38.510
   486  45  2  0.08720  26.590  20.890 -37.450
   487  45  3  0.06560  28.020  21.480 -37.880
   488  45  2  0.08720  25.440  21.180 -40.330
   489  45  3  0.06560  26.800  21.790 -40.910
   490  45  2  0.08720  25.250  23.540 -38.330
   491  45  3  0.06560  24.070  24.190 -39.200
   492  45  2  0.10880  23.550  21.000 -37.910
   493  45  2  0.14240  23.310  21.450 -36.390
   494  45  4 -0.30560  21.980  20.950 -35.930
   495  45  3  0.20000  21.730  21.430 -34.550
   496  46  1  0.19600  13.120   9.970   7.250
   497  46  2  0.08720  11.720  10.390   6.030
   498  46  3  0.06560  12.250  11.390   4.900
   499  46  2  0.08720  13.690  11.520   8.180
   500  46  3  0.06560  14.330  12.570   7.150
   501  46  2  0.08720  14.580   9.210   6.310
   502  46  3  0.06560  15.740   8.810   7.340
   503  46  2  0.10880  12.470   8.710   8.510
   504  46  2  0.14240  12.040   7.370   7.760
   505  46  4 -0.30560  11.560   6.380   8.760
   506  46  3  0.20000  11.220   5.100   8.080
   507  47  1  0.19600  25.520  32.330 -14.920
   508  47  2  0.08720  25.750  30.600 -15.660
   509  47  3  0.06560  24.370  30.090 -16.300
   510  47  2  0.08720  24.270  32.300 -13.490
   511  47  3  0.06560  22.820  31.880 -14.030
   512  47  2  0.08720  24.930  33.530 -16.260
   513  47  3  0.06560  24.780  35.000 -15.650
   514  47  2  0.10880  27.190  32.930 -14.240
   515  47  2  0.14240  28.250  33.030 -15.440
   516  47  4 -0.30560  29.550  33.520 -14.910
   517  47  3  0.20000  30.510  33.680 -16.030
   518  48  1  0.19600  18.580  15.160 -59.930
   519  48  2  0.08720  17.220  13.930 -59.450
   520  48  3  0.06560  17.860  12.670 -58.690
   521  48  2  0.08720  19.800  14.390 -61.160
   522  48  3  0.06560  20.570  13.170 -60.480
   523  48  2  0.08720  19.500  15.730 -58.370
   524  48  3  0.06560  20.620  16.800 -58.760
   525  48  2  0.10880  17.770  16.670 -60.740
   526  48  2  0.14240  16.780  17.380 -59.700
   527  48  4 -0.30560  16.170  18.580 -60.340
   528  48  3  0.20000  15.300  19.280 -59.350
   529  49  1  0.19600  21.250  17.570  46.780
   530  49  2  0.08720  20.240  17.160  48.330
   531  49  3  0.06560  21.190  16.540  49.460
   532  49  2  0.08720  21.980  16.000  46.010
   533  49  3  0.06560  23.030  15.330  47.020
   534  49  2  0.08720  22.640  18.790  47.220
   535  49  3  0.06560  23.460  19.170  45.900
   536  49  2  0.10880  20.100  18.380  45.500
   537  49  2  0.14240  19.510  19.750  46.100
   538  49  4 -0.30560  18.630  20.390  45.090
   539  49  3  0.20000  18.150  21.690  45.610
   540  50  1  0.19600  12.760   1.760   5.940
   541  50  2  0.08720  12.200   1.410   4.160
   542  50  3  0.06560  10.790   2.110   3.870
   543  50  2  0.08720  11.550   1.020   7.190
   544  50  3  0.06560  10.120   1.710   7.060
   545  50  2  0.08720  12.880   3.640   6.200
   546  50  3  0.06560  13.400   3.950   7.680
   547  50  2  0.10880  14.470   0.990   6.210
   548  50  2  0.14240  15.530   1.650   5.200
   549  50  4 -0.30560  16.870   1.060   5.430
   550  50  3  0.20000  17.860   1.720   4.540
   551  51  1  0.19600  14.910  25.540  41.240
   552  51  2  0.08720  16.270  24.220  41.160
   553  51  3  0.06560  15.650  22.790  40.800
   554  51  2  0.08720  13.670  25.150  42.620
   555  51  3  0.06560  12.910  23.770  42.320
   556  51  2  0.08720  14.010  25.610  39.570
   557  51  3  0.06560  12.880  26.750  39.620
   558  51  2  0.10880  15.700  27.220  41.590
   559  51  2  0.14240  16.710  27.600  40.410
   560  51  4 -0.30560  17.310  28.940  40.680
   561  51  3  0.20000  18.180  29.320  39.540
   562  52  1  0.19600   7.040  19.720  15.570
   563  52  2  0.08720   5.790  20.680  14.500
   564  52  3  0.06560   6.550  21.780  13.610
   565  52  2  0.08720   7.890  20.880  16.810
   566  52  3  0.06560   8.760  21.980  16.030
   567  52  2  0.08720   8.330  18.900  14.460
   568  52  3  0.06560   9.360  18.060  15.350
   569  52  2  0.10880   6.110  18.380  16.530
   570  52  2  0.14240   5.430  17.350  15.510
   571  52  4 -0.30560   4.730  16.290  16.280
   572  52  3  0.20000   4.160  15.290  15.330
   573  53  1  0.19600  26.900  20.730  39.360
   574  53  2  0.08720  25.710  19.280  39.050
   575  53  3  0.06560  26.170  17.990  39.880
   576  53  2  0.08720  28.640  20.320  38.740
   577  53  3  0.06560  29.250  19.090  39.570
   578  53  2  0.08720  26.940  21.120  41.210
   579  53  3  0.06560  27.910  22.370  41.480
   580  53  2  0.10880  26.260  22.250  38.420
   581  53  2  0.14240  24.810  22.650  38.970
   582  53  4 -0.30560  24.330  23.860  38.250
   583  53  3  0.20000  23.020  24.280  38.800
   584  54  1  0.19600  19.790   9.590  36.510
   585  54  2  0.08720  20.790   9.760  34.910
   586  54  3  0.06560  21.540  11.170  34.870
   587  54  2  0.08720  18.420  10.900  36.590
   588  54  3  0.06560  19.060  12.370  36.650
   589  54  2  0.08720  20.940   9.770  38.000
   590  54  3  0.06560  20.110   9.590  39.360
   591  54  2  0.10880  18.980   7.880  36.550
   592  54  2  0.14240  20.120   6.750  36.550
   593  54  4 -0.30560  19.480   5.410  36.610
   594  54  3  0.20000  20.540   4.360  36.680
   595  55  1  0.19600  26.730  14.220 -53.410
   596  55  2  0.08720  24.970  13.800 -52.840
   597  55  3  0.06560  23.960  14.990 -53.230
   598  55  2  0.08720  27.380  15.760 -52.510
   599  55  3  0.06560  26.500  17.040 -52.900
   600  55  2  0.08720  26.740  14.520 -55.280
   601  55  3  0.06560  28.240  14.830 -55.770
   602  55  2  0.10880  27.870  12.760 -53.010
   603  55  2  0.14240  27.380  11.460 -53.800
   604  55  4 -0.30560  28.300  10.330 -53.500
   605  55  3  0.20000  27.890   9.140 -54.290
   606  56  1  0.19600   7.670  32.570  -4.190
   607  56  2  0.08720   7.150  31.790  -5.840
   608  56  3  0.06560   8.170  32.190  -7.000
   609  56  2  0.08720   7.600  34.460  -4.290
   610  56  3  0.06560   8.650  35.000  -5.370
   611  56  2  0.08720   9.430  32.020  -3.760
   612  56  3  0.06560   9.860  32.640  -2.350
   613  56  2  0.10880   6.490  31.990  -2.830
   614  56  2  0.14240   6.570  30.400  -2.680
   615  56  4 -0.30560   5.660  29.950  -1.600
   616  56  3  0.20000   5.800  28.480  -1.410
   617  57  1  0.19600  22.150   5.030  18.910
   618  57  2  0.08720  23.910   5.260  18.240
   619  57  3  0.06560  24.470   3.880  17.650